Code	Name	Letter	D-Code	D-code-PDB	Molecular_weight	LogP	Sidechain_logP	Volume	Sidechain_volume	pKa	SMILES	Fixed SMILES	Pubchem#	D-Pubchem#	CAS	D-CAS	family	natural
DQ36	d-3-(6-Quinolyl)-alanine	ş 			217.24	-1.23_(predicted)	2.47_(predicted)	249.91	164.24	2.17_9.43_5.18_(predicted)		N[C@H](Cc1ccc2c(c1)cncc2)C(=O)O					phenylalanine	non-natural
DQX3	d-3-(2-quinoxalyl)-alanine	š 			218.23	-2.09_(predicted)	1.61	243.44	157.78	1.97_9.22_(predicted)		N[C@H](Cc1cnc2c(n1)cccc2)C(=O)O					phenylalanine	non-natural
DSEP	d-phosphoserine	ţ 			186.08	-5.14_(predicted)	-1.55_(predicted)	168.6	82.94	2.22_8.65_6.71_1.75_(predicted)		N[C@H](COP(=O)(O)O)C(=O)O	68841		407-41-0	73913-63-0	serine	non-natural
DSLZ	d-thialysine	ť 			166.24	-3.66_(predicted)	-0.06_(predicted)	186.92	101.26	2.52_9.03_9.74_(predicted)		N[C@H](CSCCN)C(=O)O	99558		2936-69-8		lysine	non-natural
DSME	d-Methionine sulfoxide	ŧ 			166.22	-3.91_(predicted)	0.77_(predicted)	183.87	98.21	1.74_9.51_(predicted)		N[C@H](CC[S@](=O)C)C(=O)O	158980		3226-65-1		methionine	non-natural
DSYA	d-Styrylalanine	ũ 			192.23	-0.77_(predicted)	3.35	233.17	147.5	2.51_9.48_(predicted)		N[C@H](CC=Cc1ccccc1)C(=O)O			267650-37-3	264903-53-9	phenylalanine	non-natural
DSYM	d-2s,4r-4-methylglutamate	ū 			161.16	-2.06_(predicted)	0.94	177.99	92.33	2_9.53_4.21_(predicted)		N[C@H](C[C@H](C(=O)O)C)C(=O)O			31137-74-3		aspartic	non-natural
D4TF	d-4-tert-butyl-phenylalanine	ŭ 			222.3	0.26_(predicted)	5.17	278.4	192.74	2.69_9.46_(predicted)		N[C@H](Cc1ccc(cc1)C(C)(C)C)C(=O)O	2761795		82372-74-5	274262-82-7	phenylalanine	non-natural
DTEZ	d-3-(2-Tetrazolyl)-alanine	ů 			158.14	-3.54_(predicted)	0.12_(predicted)	164.49	78.83	1.14_8.79_(predicted)		N[C@H](Cn1nncn1)C(=O)O			405150-16-5		histidine	non-natural
D2TG	d-2-(Trifluoromethyl)-phenylglycine	ű 			220.17	-0.82_(predicted)	3.01	207.97	122.31	1.59_8.61_(predicted)		N[C@H](c1ccccc1C(F)(F)F)C(=O)O			240490-00-0	240490-00-0	phenylglycine	non-natural
D3TG	d-3-(Trifluoromethyl)-phenylglycine	ų 			220.17	-0.82_(predicted)	3.01	211.34	125.67	1.58_8.74_(predicted)		N[C@H](c1cccc(c1)C(F)(F)F)C(=O)O					phenylglycine	non-natural
D4TG	d-4-(Trifluoromethyl)-phenylglycine	ŵ 			220.17	-0.82_(predicted)	3.01	211.37	125.71	1.58_8.8_(predicted)		N[C@H](c1ccc(cc1)C(F)(F)F)C(=O)O			144789-75-3		phenylglycine	non-natural
DTFL	d-5,5,5-Trifluoro-leucine	ŷ 			186.15	-1.10_(predicted)	2.67_(predicted)	186.24	100.58	1.82_9.51_(predicted)		N[C@H](C[C@@H](C(F)(F)F)C)C(=O)O			25367-71-9	109719-09-7	alanine	non-natural
D2TF	d-2-(Trifluoromethyl)-phenylalanine	ź 			234.19	-0.52_(predicted)	3.17_(predicted)	230.73	145.07	1.86_9.37_(predicted)		N[C@H](Cc1ccccc1C(F)(F)F)C(=O)O	2761500		119009-47-1	130930-49-3	phenylalanine	non-natural
D3TF	d-3-(Trifluoromethyl)-phenylalanine	ż 			233.19	0.36_(predicted)	3.17_(predicted)	234.36	148.69	1.86_9.43_(predicted)		N[C@H](Cc1cccc(c1)C(F)(F)F)C(=O)O	2777600		14464-68-7	14464-67-6	phenylalanine	non-natural
D4TM	d-4-(Trifluoromethyl)-phenylalanine	ž 			233.19	0.36_(predicted)	3.17_(predicted)	234.38	148.71	1.86_9.44_(predicted)		N[C@H](Cc1ccc(cc1)C(F)(F)F)C(=O)O	2761501	7004189	114926-38-4	114872-99-0	phenylalanine	non-natural
DTH6	d-4-hydroxy-l-threonine	à 			135.12	-3.78_(predicted)	-1.36	145.43	59.76	1.92_8.62_(predicted)		N[C@H]([C@H](O)CO)C(=O)O	193577		21768-45-6		serine	non-natural
D3TA	d-3-(3-thienyl)-alanine	á 			172.22	-1.73_(predicted)	2.34	188.53	102.87	2.07_9.83_(predicted)		N[C@H](Cc1cscc1)C(=O)O			3685-51-6	152612-26-5	histidine	non-natural
D2TH	d-2-thienylglycine	â 			158.2	-2.05	1.81	165.75	80.09	1.73_8.37_(predicted)		N[C@H](c1cccs1)C(=O)O		736059	4052-59-9	43189-45-3	other	non-natural
D3TH	d-3-thienylglycine	ã 			158.2	-2.02_(predicted)	1.81	165.53	79.86	1.79_8.52_(predicted)		N[C@H](c1cscc1)C(=O)O	16220058		1194-87-2	1194-86-1	other	non-natural
DTVI	d-Thio-citrulline	ä 			192.26	-0.68_(predicted)	0.46_(predicted)	212.1	126.44	2.69_9.23_(predicted)		N[C@H](CCCNC(=S)N)C(=O)O					arginine	non-natural
DTIH	d-3-(2-thienyl)-alanine	å 			172.22	-1.69_(predicted)	2.33	188.84	103.18	2.05_9.27_(predicted)		N[C@H](Cc1cccs1)C(=O)O	146719	7111750	22951-96-8	62561-76-6	histidine	non-natural
DTPO	d-phosphothreonine	æ 			200.11	-3.75_(predicted)	-1.19_(predicted)	187	101.33	2.27_8.72_6.7_1.72_(predicted)		N[C@H]([C@H](OP(=O)(O)O)C)C(=O)O			1114-81-4	96193-69-0	serine	non-natural
DTRO	d-2-hydroxy-tryptophan	ç 			221.23	-1.30_(predicted)	2.39_(predicted)	238.51	152.84	2.2_8.64_8.63_(predicted)		N[C@H](Cc1c(O)[nH]c2c1cccc2)C(=O)O					tryptophan	non-natural
DTRX	d-6-hydroxy-tryptophan	è 			220.22	-0.75_(predicted)	2.06_(predicted)	239.95	154.29	2.15_9.16_9.77_(predicted)		N[C@H](Cc1c[nH]c2c1ccc(c2)O)C(=O)O					tryptophan	non-natural
DTZR	d-3-(1,2,4-Triazol-1-yl)-alanine	é 			157.15	-3.65_(predicted)	0.00_(predicted)	170.58	84.91	0.82_8.84_2.07-(NE)_(predicted)		N[C@H](Cn1cncn1)C(=O)O			4819-36-7		histidine	non-natural
DTTQ	d-6-amino-7-hydroxy-l-tryptophan	ê 			235.24	-1.43_(predicted)	1.38_(predicted)	250.75	165.09	1.64_9.27_9.82_3.54_(predicted)		N[C@H](Cc1c[nH]c2c1ccc(c2O)N)C(=O)O					tryptophan	non-natural
DTY2	d-3-Amino-L-tyrosine	ë 			197.21	-2.45_(predicted)	1.16	219.61	133.95	1.24_9.42_4.19_10.32_(predicted)		N[C@H](Cc1ccc(c(c1)N)O)C(=O)O	160450		300-34-5		phenylalanine	non-natural
DTYI	d-3,5-diiodotyrosine	ì 			433.99	-0.46_(predicted)	4.2	252.64	166.98	1.47_9.45_7.23_(predicted)		N[C@H](Cc1cc(I)c(c(c1)I)O)C(=O)O		7059641	300-39-0	16711-71-0	phenylalanine	non-natural
DTYQ	d-3-amino-6-hydroxy-tyrosine	í 			213.21	-2.80_(predicted)	0.89_(predicted)	223.61	137.95	0.99_8.98_11.56_5.2_9.62_(predicted)		N[C@H](Cc1cc(N)c(cc1O)O)C(=O)O					phenylalanine	non-natural
D4TH	d-(4-thiazolyl)-alanine	î 			173.21	-2.34_(predicted)	0.97	185.19	99.53	0.26_9.2_1.96_(predicted)		N[C@H](Cc1cscn1)C(=O)O			136010-41-8	131896-42-9	histidine	non-natural
DUN1	d-2-Aminoadipic acid	ï 			162.16	-3.15_(predicted)	0.79	179.36	93.69	2.01_9.53_4.29_(predicted)		N[C@H](CCCC(=O)O)C(=O)O	92136		542-32-5	7620-28-2	aspartic	non-natural
DVAH	d-Hydroxynorvaline	ð 			133.15	-2.21_(predicted)	0.25	155.79	70.13	2.34_8.99_(predicted)		N[C@H]([C@H](O)CC)C(=O)O	65097	65097	34042-00-7	34042-00-7	serine	non-natural
DWFP	d-3,5-Difluoro-phenylalanine	ñ 			202.18	-1.21_(predicted)	2.49_(predicted)	208.53	122.87	1.4_9.38_(predicted)		N[C@H](Cc1cc(F)cc(c1)F)C(=O)O	716307	716310	31105-91-6	266360-63-8	phenylalanine	non-natural
DYCM	d-cysteine-s-acetamide	ò 			179.22	-3.77_(predicted)	-0.18_(predicted)	187.98	102.32	2.08_8.83_(predicted)		N[C@H](CSCC(=O)N)C(=O)O	95482	95482	17528-66-4	17528-66-4	asparagine	non-natural
DYOF	d-3-fluorotyrosine	ó 			200.19	-1.66_(predicted)	2.03_(predicted)	210.5	124.83	1.57_9.48_8.37_(predicted)		N[C@H](Cc1ccc(c(c1)F)O)C(=O)O	643330	719318	7423-96-3	64024-06-2	phenylalanine	non-natural