Code	Name	Letter	D-Code	D-code-PDB	Molecular_weight	LogP	Sidechain_logP	Volume	Sidechain_volume	pKa	SMILES	Fixed SMILES	Pubchem#	D-Pubchem#	CAS	D-CAS	family	natural
DCIR	d-Citrulline	ṇ 			175.19	-3.19	-0.14_(predicted)	198.96	113.3	2.27_9.23_(predicted)		N[C@H](CCC[NH]C(=O)N)C(=O)O	9750	637599	372-75-8	13594-51-9	arginine	non-natural
D2CF	d-2-cyano-phenylalanine	ṉ 			191.21	-1.69_(predicted)	2.21	218.05	132.39	1.53_9.35_(predicted)		N[C@H](Cc1ccccc1C#N)C(=O)O	2761502		263396-42-5	263396-41-4	phenylalanine	non-natural
D24E	d-2,4-dichloro-phenylalanine	ṋ 			235.09	-0.15_(predicted)	4.24	228.93	143.26	1.46_9.36_(predicted)		N[C@H](Cc1ccc(cc1Cl)Cl)C(=O)O	2761497	6993648	111119-36-9	114872-98-9	phenylalanine	non-natural
D34E	d-3,4-dichloro-phenylalanine	ọ 			235.09	-0.15_(predicted)	3.95	229.65	143.98	1.45_9.42_(predicted)		N[C@H](Cc1ccc(c(c1)Cl)Cl)C(=O)O	2761498		52794-99-7	52794-98-6	phenylalanine	non-natural
DCPE	d-3-Cyclopentyl-alanine	ỏ 			157.21	0.07_(predicted)	3.37	202.67	117.01	2.67_9.52_(predicted)		N[C@H](CC1CCCC1)C(=O)O					alanine	non-natural
DCG6	d-2-Chloro-phenylglycine	ố 			185.61	-0.19_(predicted)	2.84	189.86	104.2	1.57_8.87_(predicted)		N[C@H](c1ccccc1Cl)C(=O)O			141315-50-6	86169-24-6	phenylglycine	non-natural
DCG5	d-3-Chloro-phenylglycine	ồ 			186.62	-1.08_(predicted)	2.84	190.74	105.08	1.57_8.74_(predicted)		N[C@H](c1cccc(c1)Cl)C(=O)O					phenylglycine	non-natural
DCGD	d-4-Chloro-phenylglycine	ổ 			186.62	-1.08_(predicted)	2.84	190.76	105.1	1.56_8.79_(predicted)		N[C@H](c1ccc(cc1)Cl)C(=O)O					phenylglycine	non-natural
DCF6	d-2-chloro-Phenylalanine	ỗ 			200.64	-0.78_(predicted)	3.42	212.81	127.14	1.86_9.37_(predicted)		N[C@H](Cc1ccccc1Cl)C(=O)O	2761491		103616-89-3	80126-50-7	phenylalanine	non-natural
DCSA	d-s-acetonylcysteine	ộ 			178.23	-2.96_(predicted)	0.63_(predicted)	198.53	112.86	2.16_8.93_(predicted)		N[C@H](CSCC(=O)C)C(=O)O					other	non-natural
DCSE	d-Selenocysteine	ớ 			168.05	-2.91_(predicted)	0.68_(predicted)	137.7	52.04	1.27_8.42_(predicted)		N[C@H](C[SeH])C(=O)O			10236-58-5		cysteine	non-natural
DCTE	d-7-chloro-tryptophan	ờ 			238.67	0.23_(predicted)	3.04_(predicted)	246.42	160.76	2.15_9.4_(predicted)		N[C@H](Cc1cNc2c1cccc2Cl)C(=O)O			73945-46-7	75102-74-8	tryptophan	non-natural
DCTH	d-4-chloro-threonine	ở 			154.57	-3.39_(predicted)	-0.06	153.29	67.63	1.73_8.96_(predicted)		N[C@H]([C@H](O)CCl)C(=O)O			132958-66-8		serine	non-natural
DD4P	d-4-Hydroxy-phenylglycine	ỡ 			168.17	-2.06_(predicted)	1.5	183.66	97.99	1.74_8.75_9.59_(predicted)		N[C@H](c1ccc(cc1)O)C(=O)O	36143	89853	32462-30-9	22818-40-2	phenylglycine	non-natural
DDAB	d-Diaminobutyric acid	ợ 			119.14	-4.64	-0.13	140.05	54.39	2.55_8.26_9.99_(predicted)		N[C@H](CCN)C(=O)O				26908-94-1	lysine	non-natural
DDAH	d-3,4-Dihydroxy-phenylalanine	ṍ 			198.2	-2.74	1.37	214.52	128.86	1.65_9.06_9.69_12.74_(predicted)		N[C@H](Cc1ccc(c(c1)O)O)C(=O)O	6047	92222	59-92-7	5796-17-8	phenylalanine	non-natural
DDBY	d-3,5-dibromotyrosine	ṏ 			339.99	-0.38_(predicted)	3.31_(predicted)	259.58	173.92	1.35_9.44_6.75_(predicted)		N[C@H](Cc1cc(Br)c(c(c1)Br)O)C(=O)O	67532		300-38-9	50299-42-8	phenylalanine	non-natural
DDDZ	d-3,3-dihydroxy-alanine	ṑ 			122.1	-4.57_(predicted)	-1.05_(predicted)	124.84	39.18	1.72_8.36_11.91_13.78_(predicted)		N[C@H](C(O)O)C(=O)O					serine	non-natural
D2EL	d-Diethylalanine	ṓ 			146.21	-1.32_(predicted)	3.39	185.21	99.55	2.85_9.58_(predicted)		N[C@H](C(CC)CC)C(=O)O			14328-53-1	14328-53-1	alanine	non-natural
D2F1	d-3,3-diphenylalanine	ṕ 			242.29	0.04_(predicted)	4.14	285.51	199.85	2.44_9.41_(predicted)		N[C@H]([C@H](c1ccccc1)c1ccccc1)C(=O)O			149597-92-2	149597-91-1	phenylalanine	non-natural
DDMK	d-3,3-dimethyl aspartic acid	ṗ 			160.15	-1.17_(predicted)	0.94	176.26	90.6	2.01_9.74_4.3_(predicted)		N[C@H](C(C(=O)O)(C)C)C(=O)O					aspartic	non-natural
DDF4	d-3-ethyl-phenylalanine	ṙ 			194.25	-0.61_(predicted)	3.98	242.19	156.52	2.62_9.45_(predicted)		N[C@H](Cc1cc(CC)ccc1)C(=O)O					phenylalanine	non-natural
DDPP	d-2,3-Diaminopropanoic acid	ṛ 			105.12	-3.42_(predicted)	-0.57	116.32	30.66	2.1_6.59_8.09_(predicted)		N[C@H](CN)C(=O)O	97328		4033-39-0	1915-96-4	lysine	non-natural
DESC	d-Ethionine	ṝ 			164.25	-1.99_(predicted)	1.95	196.56	110.9	2.61_9.5_(predicted)		N[C@H](CCSCC)C(=O)O	25674	92124	13073-35-3	535-32-0	methionine	non-natural
DF2F	d-3,4-Difluoro-phenylalanine	ṟ 			202.18	-1.21_(predicted)	2.49_(predicted)	208.48	122.82	1.4_9.42_(predicted)		N[C@H](Cc1ccc(c(c1)F)F)C(=O)O	716295		31105-90-5	249648-08-6	phenylalanine	non-natural
DFCL	d-3-chloro-Phenylalanine	ṡ 			200.64	-0.78_(predicted)	3.28	213.76	128.1	1.85_9.42_(predicted)		N[C@H](Cc1cccc(c1)Cl)C(=O)O	2761492	7009409	80126-51-8	80126-52-9	phenylalanine	non-natural
D4FG	d-4-Fluoro-glutamic acid	ṣ 			166.13	-3.03_(predicted)	1.45_(predicted)	162.47	76.81	1.78_9.45_3.64_(predicted)		N[C@H](C[C@H](F)C(=O)O)C(=O)O			91383-47-0	149117-03-3	aspartic	non-natural
DFLA	d-Trifluoro-alanine	ṧ 			144.07	-2.25_(predicted)	0.64	119.94	34.28	1.02_4.73_(predicted)		N[C@H](C(F)(F)F)C(=O)O					alanine	non-natural
DFP6	d-2-Fluoro-phenylglycine	ṩ 			170.16	-1.60_(predicted)	2.27	182.98	97.31	1.58_8.96_(predicted)		N[C@H](c1ccccc1F)C(=O)O					phenylglycine	non-natural
DFP7	d-3-Fluoro-phenylglycine	ṫ 			170.16	-1.60_(predicted)	2.27	183.32	97.66	1.57_8.96_(predicted)		N[C@H](c1cccc(c1)F)C(=O)O					phenylglycine	non-natural
DFP8	d-4-Fluoro-phenylglycine	ṭ 			170.16	-1.60_(predicted)	2.27	180.04	94.38	1.57_8.96_(predicted)		N[C@H](c1ccc(cc1)F)C(=O)O	853015	124515	19883-57-9	93939-74-3	phenylglycine	non-natural
DFF2	d-2-Fluoro-Phenylalanine	ṯ 			184.19	-1.31_(predicted)	2.39_(predicted)	202.75	117.09	1.86_9.33_(predicted)		N[C@H](Cc1ccccc1F)C(=O)O	716319	716322	19883-78-4	122839-51-4	phenylalanine	non-natural
DFF3	d-3-Fluoro-Phenylalanine	ṱ 			184.19	-1.31_(predicted)	2.75	203.08	117.42	1.86_9.41_(predicted)		N[C@H](Cc1cccc(c1)F)C(=O)O	716315		19883-77-3	2629-54-1	phenylalanine	non-natural
DFT6	d-6-fluoro-l-tryptophan	ụ 			223.22	-0.78	2.51_(predicted)	236.8	151.14	2.13_9.4_(predicted)		N[C@H](Cc1cNc2c1ccc(c2)F)C(=O)O			19310-00-0	108391-82-8	tryptophan	non-natural
DFTR	d-5-Fluoro-tryptophan	ủ 			223.22	-0.71	2.51_(predicted)	239.19	153.53	2.12_9.4_(predicted)		N[C@H](Cc1c[nH]c2c1cc(F)cc2)C(=O)O			97749-24-1	16626-02-1	tryptophan	non-natural
DFUO	d-(2-furyl)-alanine	ứ 			156.16	-2.31_(predicted)	1.85	177.78	92.12	1.34_9.18_(predicted)		N[C@H](Cc1ccco1)C(=O)O	2761503		127682-08-0	110772-46-8	histidine	non-natural
DFVL	d-3-Fluoro-valine	ừ 			136.15	-2.40_(predicted)	1.37_(predicted)	152.86	67.2	2.35_8.43_(predicted)		N[C@H](C(F)(C)C)C(=O)O					alanine	non-natural
DGBT	d-2-Amino-4-guanidinobutryric acid	ử 			161.18	-0.66_(predicted)	-0.58_(predicted)	183.35	97.69	2.31_9.7_12.32_(predicted)		N[C@H](CCNC(N)N)C(=O)O					arginine	non-natural
DGPA	d-2-Amino-3-guanidinopropionic acid	ữ 			147.16	-1.02_(predicted)	-0.94_(predicted)	159.06	73.39	2.06_6.75_12.24_(predicted)		N[C@H](CNC(N)N)C(=O)O					arginine	non-natural
DGGB	d-Canavanine	ự 			176.17	-3.20_(predicted)	-0.48_(predicted)	192.41	106.75	2.1_9.16_6.64-(N)_(predicted)		N[C@H](CCON=C(N)N)C(=O)O	439202		543-38-4		arginine	non-natural
DGHG	d-(2s,4s)-2,5-diamino-4-hydroxy-5-oxopentanoic acid	ṳ 			162.14	-3.83_(predicted)	-1.11_(predicted)	171.1	85.44	1.93_8.94_(predicted)		N[C@H](C[C@H](O)C(=O)N)C(=O)O					asparagine	non-natural
DGME	d-5-o-methyl-glutamic acid	ṵ 			162.16	-3.18_(predicted)	0.82	185.52	99.86	2.02_9.51_(predicted)		N[C@H](CCC(=O)OC)C(=O)O	68662	111219	1499-55-4	6461-04-7	aspartic	non-natural
DHCS	d-homocysteine	ṷ 			136.19	-2.72_(predicted)	0.88_(predicted)	147.98	62.32	2.46_9.41_10.18_(predicted)		N[C@H](CCS)C(=O)O	91552		6027-13-0		cysteine	non-natural
DHGA	d-glutamine hydroxamate	ṹ 			163.15	-4.25_(predicted)	-0.48_(predicted)	174.39	88.72	1.93_9.46_8.91-(OH)_(predicted)		N[C@H](CCC(=O)NO)C(=O)O					asparagine	non-natural
DHHK	d-(2s)-2,8-diaminooctanoic acid	ṻ 			176.26	-2.34_(predicted)	2.06	230.11	144.45	2.84_9.44_10.29_(predicted)		N[C@H](CCCCCCN)C(=O)O					lysine	non-natural
DHIL	d-4-Hydroxy-L-isoleucine	ṽ 			148.18	-2.82_(predicted)	0.65	175.95	90.28	2.46_9.22_(predicted)		N[C@H]([C@H]([C@@H](C)O)C)C(=O)O	2773624		781658-23-9		serine	non-natural
DHL2	d-(2s,3r)-2-amino-3-hydroxy-4-methylpentanoic acid	ṿ 			148.18	-2.65_(predicted)	0.76	175.73	90.07	2.44_8.99_(predicted)		N[C@H]([C@H](O)C(C)C)C(=O)O					serine	non-natural
DHL1	d-Homoleucine	ẁ 			145.2	-0.44_(predicted)	2.64_(predicted)	191.57	105.91	2.85_9.53_(predicted)		N[C@H](CCC(C)C)C(=O)O					alanine	non-natural
DHLU	d-beta-hydroxyleucine	ẃ 			147.17	-1.77_(predicted)	0.76	178.34	92.68	2.44_8.99_(predicted)		N[C@H]([C@@H](O)C(C)C)C(=O)O	134611		5817-22-1		serine	non-natural
DHOX	d-4-amino-L-phenylalanine	ẅ 			181.21	-2.2	1.39	208.82	123.15	1.54_9.52_4.24_(predicted)		N[C@H](Cc1ccc(cc1)N)C(=O)O	151001		943-80-6	102281-45-8	phenylalanine	non-natural
DHPE	d-Homophenylalanine	ẇ 			180.22	-1.2	3.15	218.78	133.11	2.55_9.52_(predicted)		N[C@H](CCc1ccccc1)C(=O)O	2724505		943-73-7	82795-51-5	phenylalanine	non-natural
DHQA	d-3-(8-hydroxyquinolin-3-yl)-l-alanine	ẉ 			233.24	-1.50_(predicted)	2.20_(predicted)	255.25	169.59	1.48_9.66_2.66_9.4_(predicted)		N[C@H](Cc1cnc2c(c1)cccc2O)C(=O)O					phenylalanine	non-natural
DHRG	d-homoarginine	ẋ 			190.24	-3.9	0.31_(predicted)	225.15	139.49	2.49_9.45_12.23_(predicted)		N[C@H](CCCCNC(N)N)C(=O)O			156-86-5	110798-13-5	arginine	non-natural
DHRP	d-5-Hydroxy-tryptophan	ẍ 			221.23	-1.64_(predicted)	2.06_(predicted)	242.85	157.19	2.15_9.18_9.63_(predicted)		N[C@H](Cc1cNc2c1cc(O)cc2)C(=O)O	439280		4350-09-8		tryptophan	non-natural
DHSE	d-homoserine	ỳ 			120.13	-3.69_(predicted)	-0.3	137.74	52.08	2.23_9.16_(predicted)		N[C@H](CCO)C(=O)O	12647	2724170	672-15-1	6027-21-0	serine	non-natural
DHTR	d-beta-hydroxy-tryptophane	ỵ 			221.23	-2.39_(predicted)	1.16_(predicted)	238.5	152.84	2.3_8.83_(predicted)		N[C@H]([C@H](c1c[nH]c2c1cccc2)O)C(=O)O					tryptophan	non-natural
DHVA	d-3-hydroxy-l-valine	ỷ 			133.15	-2.55_(predicted)	0.05	152.99	67.33	2.34_9.08_(predicted)		N[C@H](C(O)(C)C)C(=O)O	192763		2280-27-5	2280-28-6	serine	non-natural
DI2M	d-3-methyl-l-alloisoleucine	ỹ 			146.21	-1.28_(predicted)	2.64_(predicted)	184.17	98.51	2.85_9.31_(predicted)		N[C@H](C(CC)(C)C)C(=O)O					alanine	non-natural
DIGL	d-alpha-amino-2-indanacetic acid	ẏ 			191.23	-0.23_(predicted)	3.33	226.06	140.4	2.4_9.56_(predicted)		N[C@H](C1Cc2c(C1)cccc2)C(=O)O					alanine	non-natural
DIIL	d-Allo-Isoleucine	ẑ 			132.18	-1.76	2.89	171.18	85.52	2.79_9.59_(predicted)		N[C@H]([C@@H](CC)C)C(=O)O		94206	1509-34-8	1509-35-9	alanine	non-natural
DILX	d-4,5-dihydroxy-isoleucine	ẓ 			163.17	-2.99_(predicted)	-0.18_(predicted)	187.58	101.92	2.2_8.9_(predicted)		N[C@H]([C@H]([C@H](CO)O)C)C(=O)O					serine	non-natural
DIYR	d-3-iodo-tyrosine	ẕ 			308.09	-1.11_(predicted)	2.58_(predicted)	228.89	143.23	1.54_9.5_8.16_(predicted)		N[C@H](Cc1ccc(c(c1)I)O)C(=O)O	439744		70-78-0		phenylalanine	non-natural
DKYN	d-kynurenine	ỻ 			209.22	-2.18_(predicted)	1.63	229.38	143.72	1.19_8.96_2.43_(predicted)		N[C@H](CC(=O)c1ccccc1N)C(=O)O	161166	1152206	2922-83-0	13441-51-5	phenylalanine	non-natural
DLDO	d-6-hydroxy-l-norleucine	ỽ 			148.18	-2.98_(predicted)	0.84	182.18	96.52	2.46_9.53_(predicted)		N[C@H](CCCCO)C(=O)O	97725		6033-32-5		serine	non-natural
DLE1	d-Penicillamine	ỿ 			150.22	-1.78	1.31_(predicted)	162.89	77.23	2.56_9.09_9.85_(predicted)		N[C@H](C(S)(C)C)C(=O)O		5852	1113-41-3	52-67-5	cysteine	non-natural
DLED	d-(4r)-5-oxo-l-leucine	ẟ 			146.16	-3.00_(predicted)	0.77_(predicted)	173.37	87.71	2.25_9.51_(predicted)		N[C@H](C[C@@H](C)C=O)C(=O)O					other	non-natural
DLEF	d-(4s)-5-fluoro-l-leucine	ẝ 			150.17	-1.87_(predicted)	1.90_(predicted)	175.89	90.23	2.52_9.52_(predicted)		N[C@H](C[C@H](C)CF)C(=O)O					alanine	non-natural
DLME	d-(3r)-3-methyl-l-glutamic acid	ā 			161.16	-2.19_(predicted)	0.79	176.87	91.21	2.02_9.6_4.24_(predicted)		N[C@H]([C@H](C)CC(O)=O)C(=O)O					aspartic	non-natural
DLMQ	d-3-methyl-l-glutamine	ă 			161.18	-3.72_(predicted)	-0.21	180.35	94.68	2.26_9.38_(predicted)		N[C@H]([C@@H](C)CC(N)=O)C(=O)O					asparagine	non-natural
DLVG	d-vinylglycine	ą 			101.1	-1.67_(predicted)	1.13	121.26	35.6	2.42_8.95_(predicted)		N[C@H](C=C)C(=O)O	156126		70982-53-5		alanine	non-natural
DLVN	d-4-oxo-l-valine	ć 			131.13	-2.48_(predicted)	0.59	150.07	64.41	2.12_9.05_(predicted)		N[C@H]([C@H](C)C=O)C(=O)O					other	non-natural
DM2S	d-3,3-dimethyl-methionine sulfoxide	ĉ 			194.27	-3.08_(predicted)	1.73_(predicted)	217.36	131.7	2_9.3_(predicted)		N[C@H](C(C)(C)C[S@@](C)=O)C(=O)O					other	non-natural
DME0	d-hydroxy-l-methionine	ċ 			166.22	-2.95_(predicted)	0.66_(predicted)	184.55	98.89	2.23_9.5_(predicted)		N[C@H](CCSCO)C(=O)O					methionine	non-natural
DMEG	d-(3s)-3-methyl-l-glutamic acid	č 			161.16	-2.19_(predicted)	0.79	176.72	91.06	2.02_9.6_4.25_(predicted)		N[C@H]([C@@H](C)CC(=O)O)C(=O)O					aspartic	non-natural
DMEN	d-n-methyl-asparagine	ď 			147.15	-4.12_(predicted)	-1.05	164.52	78.86	2.14_8.43_(predicted)		N[C@H](CC(=O)NC)C(=O)O	100393		7175-34-0	86070-35-1	asparagine	non-natural
DMEQ	d-n5-methyl-glutamine	đ 			161.18	-3.76_(predicted)	0.01_(predicted)	188.27	102.61	2.23_9.31_(predicted)		N[C@H](CCC(=O)NC)C(=O)O					asparagine	non-natural
DMHO	d-s-oxymethionine	ē 			166.22	-3.91_(predicted)	0.77_(predicted)	183.35	97.68	1.74_9.51_(predicted)		N[C@H](CC[S@](=O)C)C(=O)O	158980		3226-65-1		methionine	non-natural
D5XW	d-5-Methoxy-tryptophan	ĕ 			235.26	-1.31_(predicted)	2.38_(predicted)	267.48	181.82	2.22_9.42_(predicted)		N[C@H](Cc1cNc2ccc(OC)cc12)C(=O)O			25197-96-0	89496-02-6	tryptophan	non-natural
DM34	d-3,4-Dimethyl-phenylalanine	ė 			193.24	0.20_(predicted)	3.7	240.27	154.61	2.67_9.47_(predicted)		N[C@H](Cc1ccc(c(c1)C)C)C(=O)O			142995-28-6		phenylalanine	non-natural
D2MF	d-2-Methyl-phenylalanine	ę 			180.22	-1.04_(predicted)	3.12	217.69	132.02	2.58_9.46_(predicted)		N[C@H](Cc1ccccc1C)C(=O)O	2761493		80126-53-0		phenylalanine	non-natural
D5MW	d-5-Methyl-tryptophan	ě 			219.26	-0.92_(predicted)	2.78_(predicted)	255.65	169.98	2.61_9.41_(predicted)		N[C@H](Cc1cNc2ccc(C)cc12)C(=O)O	150990		154-06-3	99295-79-1	tryptophan	non-natural
D6MW	d-6-Methyl-tryptophan	ĝ 			219.26	-0.92_(predicted)	2.78_(predicted)	255.63	169.97	2.61_9.41_(predicted)		N[C@H](Cc1cNc2c1ccc(c2)C)C(=O)O	164910		1991-93-1		tryptophan	non-natural
DMTY	d-m-Tyrosine	ğ 			182.2	-1.76_(predicted)	1.98	206.75	121.09	2_9.14_9.52_(predicted)		N[C@H](Cc1cccc(c1)O)C(=O)O	6950578	6950580	587-33-7	32140-49-1	phenylalanine	non-natural
DNAL	d-2-Naphthyl-alanine	ġ 			216.26	-0.15	4	253.11	167.45	2.61_9.44_(predicted)		N[C@H](Cc1ccc2c(c1)cccc2)C(=O)O	185915		58438-03-2	76985-09-6	phenylalanine	non-natural
D51N	d-5-hydroxy-1-naphthalene	ģ 			232.25	-0.51_(predicted)	3.18_(predicted)	260.31	174.65	2.24_9.25_9.81_(predicted)		N[C@H](Cc1cccc2c1cc(O)cc2)C(=O)O					phenylalanine	non-natural
D62N	d-6-hydroxy-2-naphthalene	ĥ 			232.25	-0.51_(predicted)	3.18_(predicted)	261.2	175.53	2.23_9.27_9.82_(predicted)		N[C@H](Cc1ccc2c(c1)cc(cc2)O)C(=O)O					phenylalanine	non-natural
DNIY	d-meta-nitro-tyrosine	ħ 			226.19	-0.50_(predicted)	2.15	233.44	147.78	0.96_9.48_6.3-(OH)_(predicted)		N[C@H](Cc1ccc(c(c1)N(=O)=O)O)C(=O)O	65124		621-44-3	32988-39-9	phenylalanine	non-natural
DNLE	d-Norleucine	ĩ 			131.17	-1.53	2.89	171.92	86.26	2.79_9.53_(predicted)		N[C@H](CCCC)C(=O)O	21236	456468	327-57-1	327-56-0	alanine	non-natural
DNVA	d-Norvaline	ī 			117.15	-1.86	2.36	149.67	64.01	2.36_9.76		N[C@H](CCC)C(=O)O	65098	439575	6600-40-4	2013-12-9	alanine	non-natural
DOAS	d-o-acetylserine	ĭ 			148.14	-3.48_(predicted)	0.18	164.71	79.05	1.86_8.6_(predicted)		N[C@H](COC(=O)C)C(=O)O	99478		5147-00-2	44901-25-9	other	non-natural
DOBF	d-(2s)-2-amino-4,4-difluorobutanoic acid	į 			140.11	-2.16_(predicted)	0.75	141.26	55.6	1.79_9.36_(predicted)		N[C@H](CC(F)F)C(=O)O			121960-22-3		alanine	non-natural
DOCY	d-s-(2-hydroxyethyl)-l-cysteine	ı 			165.21	-2.52_(predicted)	0.19_(predicted)	184.75	99.09	2.26_9.14_(predicted)		N[C@H](CSCCO)C(=O)O	119224		6367-98-2	85955-36-8	serine	non-natural
DOLT	d-o-methyl-l-threonine	ĳ 			134.15	-3.08_(predicted)	0.45_(predicted)	158.68	73.01	2.34_8.89_(predicted)		N[C@H]([C@H](OC)C)C(=O)O	2724875		4144-02-9		other	non-natural
DOMT	d-Methionine sulfone	ĵ 			182.22	-3.1	-0.03_(predicted)	194.49	108.83	1.55_9.49_(predicted)		N[C@H](CCS(=O)(=O)C)C(=O)O			7314-32-1		methionine	non-natural
DOMX	d-(betar)-beta-hydroxy-l-tyrosine	ķ 			198.2	-2.88_(predicted)	0.25	213	127.34	1.76_8.8_9.49-(para-OH)_(predicted)		N[C@H]([C@@H](c1ccc(cc1)O)O)C(=O)O					phenylalanine	non-natural
DOMY	d-(betar)-3-chloro-beta-hydroxy-l-tyrosine	ĺ 			232.64	-2.25_(predicted)	1.31_(predicted)	228.77	143.11	1.42_8.93_7.62_(predicted)		N[C@H]([C@@H](c1ccc(c(c1)Cl)O)O)C(=O)O					phenylalanine	non-natural
DONL	d-5-oxo-l-norleucine	ļ 			146.16	-3.35_(predicted)	0.29	173.68	88.02	2.25_9.51_(predicted)		N[C@H](CCC(=O)C)C(=O)O					other	non-natural
DORN	d-Ornithine	ľ 			133.17	-4.41	0.48	165.17	79.5	2.67_9.44_9.96_(predicted)		N[C@H](CCCN)C(=O)O	6262		70-26-8	410523-47-6	lysine	non-natural
D2TR	d-o-Tyrosine	ŀ 			182.2	-1.76_(predicted)	1.98	208.34	122.68	2.01_8.88_9.38_(predicted)		N[C@H](Cc1ccccc1O)C(=O)O	6950574		709-16-0	24008-77-3	phenylalanine	non-natural
DPBF	d-4-benzoyl-phenylalanine	ł 			270.3	-0.07_(predicted)	3.63_(predicted)	315.08	229.42	1.59_9.21_(predicted)		N[C@H](Cc1ccc(cc1)C(=O)c1ccccc1)C(=O)O			104504-45-2	201466-03-7	phenylalanine	non-natural
DPF5	d-pentafluoro-phenylalanine	ń 			256.15	-0.91_(predicted)	2.79_(predicted)	224.06	138.39	0.34_9.17_(predicted)		N[C@H](Cc1c(F)c(F)c(c(c1F)F)F)C(=O)O		6992999	138109-65-6	40332-58-9	phenylalanine	non-natural
DPFF	d-4-Fluoro-Phenylalanine	ņ 			184.19	-1.89	2.58	203.09	117.42	1.86_9.45_(predicted)		N[C@H](Cc1ccc(cc1)F)C(=O)O	716312		1132-68-9	18125-46-7	phenylalanine	non-natural
DPHI	d-4-Iodo-Phenylalanine	ň 			292.09	-0.76_(predicted)	2.94_(predicted)	222.19	136.52	1.9_9.44_(predicted)		N[C@H](Cc1ccc(cc1)I)C(=O)O	134497		24250-85-9	62561-75-5	phenylalanine	non-natural
DPPN	d-4-Nitro-phenylalanine	ŋ 			210.19	-1.25	2.37	223.74	138.07	1.16_9.37_(predicted)		N[C@H](Cc1ccc(cc1)N(=O)=O)C(=O)O	13706	679497	949-99-5	56613-61-7	phenylalanine	non-natural
DPTR	d-phosphotyrosine	ō 			262.18	-3.07_(predicted)	0.63_(predicted)	257.71	172.04	1.98_9.46_6.21_1.25_(predicted)		N[C@H](Cc1ccc(cc1)OP(=O)(O)O)C(=O)O	30819		21820-51-9	108321-25-1	phenylalanine	non-natural
DY23	d-3-(2-Pyridyl)-alanine	ŏ 			166.18	-1.56_(predicted)	1.11	193.91	108.25	1.77_9.27_3.04_(predicted)		N[C@H](Cc1ccccn1)C(=O)O	2761499	7019768	37535-51-6	37535-52-7	phenylalanine	non-natural
DY33	d-3-(3-Pyridyl)-alanine	ő 			167.19	-2.48_(predicted)	1.2	193.64	107.98	1.79_9.37_3.85_(predicted)		N[C@H](Cc1cccnc1)C(=O)O	152953		64090-98-8	70702-47-5	phenylalanine	non-natural
DY34	d-3-(4-Pyridyl)-alanine	œ 			167.19	-2.48_(predicted)	1.22	193.57	107.91	1.79_9.4_4.86_(predicted)		N[C@H](Cc1ccncc1)C(=O)O			178933-04-5	174096-41-4	phenylalanine	non-natural
DPZ4	d-3-(1-Pyrazolyl)-alanine	ŕ 			156.16	-3.42_(predicted)	0.23	175.52	89.86	1.25_8.84_3.08-(ND1)_(predicted)		N[C@H](Cn1cccn1)C(=O)O	151491		2734-48-7	2734-48-7	histidine	non-natural
DQ32	d-3-(2-Quinolyl)-alanine	ŗ 			217.24	-1.11_(predicted)	2.59	250.24	164.58	1.66_9.29_2.44_(predicted)		N[C@H](Cc1ccc2c(n1)cccc2)C(=O)O			161513-46-8	170421-67-7	phenylalanine	non-natural
DQ33	d-3-(3-quinolyl)-alanine	ř 			217.24	-1.14_(predicted)	2.53	248.18	162.52	2.22_9.38_3.22_(predicted)		N[C@H](Cc1cnc2c(c1)cccc2)C(=O)O					phenylalanine	non-natural
DQ34	d-3-(4-quinolyl)-alanine	ś 			217.24	-1.14_(predicted)	2.61	248.44	162.78	2.25_9.38_4.3_(predicted)		N[C@H](Cc1ccnc2c1cccc2)C(=O)O					phenylalanine	non-natural
DQ35	d-3-(5-Quinolyl)-alanine	ŝ 			217.24	-1.14_(predicted)	2.47	250.03	164.37	2.24_9.43_4.31_(predicted)		N[C@H](Cc1ccc2c(c1)nccc2)C(=O)O					phenylalanine	non-natural