L-Code	Name	D-Code	D-code-PDB	Molecular_weight	LogP	Sidechain_logP	Volume	Sidechain_volume	pKa	SMILES	Fixed SMILES	Pubchem#	D-Pubchem#	CAS	D-CAS	family	natural
TPO	phosphothreonine	DTPO	D11	200.11	-3.75_(predicted)	-1.19_(predicted)	187	101.33	2.27_8.72_6.7_1.72_(predicted)	C[C@H]([C@@H]([C](=O)=O)[NH3])OP(O)(O)O				1114-81-4	96193-69-0	serine	non-natural
TPO2	phosphothreonine  (charge: -2)	DPO6	NA	200.11	-3.75_(predicted)	-1.19_(predicted)	185.69	100.03	2.27_8.72_6.7_1.72_(predicted)	C[C@H]([C@@H]([C](=O)=O)[NH3])OP(O)(O)O				1114-81-4	96193-69-0	serine	non-natural
TRO	2-hydroxy-tryptophan	DTRO	NA	221.23	-1.30_(predicted)	2.39_(predicted)	238.51	152.84	2.2_8.64_8.63_(predicted)	OC(=O)[C@H](Cc1c(O)[nH]c2c1cccc2)[NH3]						tryptophan	non-natural
TRX	6-hydroxy-tryptophan	DTRX	NA	220.22	-0.75_(predicted)	2.06_(predicted)	239.95	154.29	2.15_9.16_9.77_(predicted)	O=[C](=O)[C@H](Cc1c[nH]c2c1ccc(c2)O)[NH3]						tryptophan	non-natural
TRZ4	3-(1,2,4-Triazol-1-yl)-alanine	DTZR	NA	157.15	-3.65_(predicted)	0.00_(predicted)	170.58	84.91	0.82_8.84_2.07-(NE)_(predicted)	[NH3][C@H](C(=O)O)Cn1cncn1				4819-36-7		histidine	non-natural
TTQ	6-amino-7-hydroxy-l-tryptophan	DTTQ	NA	235.24	-1.43_(predicted)	1.38_(predicted)	250.75	165.09	1.64_9.27_9.82_3.54_(predicted)	[NH3][C@H]([C](=O)=O)Cc1c[nH]c2c1ccc(c2O)N						tryptophan	non-natural
TY2	3-Amino-L-tyrosine	DTY2	NA	197.21	-2.45_(predicted)	1.16	219.61	133.95	1.24_9.42_4.19_10.32_(predicted)	OC(=O)[C@H](Cc1ccc(c(c1)N)O)[NH3]		160450		300-34-5		phenylalanine	non-natural
TYI	3,5-diiodotyrosine	DTYI	NA	433.99	-0.46_(predicted)	4.2	252.64	166.98	1.47_9.45_7.23_(predicted)	OC(=O)[C@H](Cc1cc(I)c(c(c1)I)O)[NH3]			7059641	300-39-0	16711-71-0	phenylalanine	non-natural
TYQ	3-amino-6-hydroxy-tyrosine	DTYQ	NA	213.21	-2.80_(predicted)	0.89_(predicted)	223.61	137.95	0.99_8.98_11.56_5.2_9.62_(predicted)	OC(=O)[C@H](Cc1cc(N)c(cc1O)O)[NH3]						phenylalanine	non-natural
TZA4	(4-thiazolyl)-alanine	D4TH	NA	173.21	-2.34_(predicted)	0.97	185.19	99.53	0.26_9.2_1.96_(predicted)	[NH3][C@H](C(=O)O)Cc1cscn1				136010-41-8	131896-42-9	histidine	non-natural
UN1	2-Aminoadipic acid	DUN1	11C	162.16	-3.15_(predicted)	0.79	179.36	93.69	2.01_9.53_4.29_(predicted)	OC(=O)CCC[C@@H](C(=O)O)[NH3]		92136		542-32-5	7620-28-2	aspartic	non-natural
VAH	Hydroxynorvaline	DVAH	NA	133.15	-2.21_(predicted)	0.25	155.79	70.13	2.34_8.99_(predicted)	CC[C@H]([C@@H]([C](=O)=O)[NH3])O		65097	65097	34042-00-7	34042-00-7	serine	non-natural
WFP	3,5-Difluoro-phenylalanine	DWFP	NA	202.18	-1.21_(predicted)	2.49_(predicted)	208.53	122.87	1.4_9.38_(predicted)	[NH3][C@H](C(=O)O)Cc1cc(F)cc(c1)F		716307	716310	31105-91-6	266360-63-8	phenylalanine	non-natural
YCM	cysteine-s-acetamide	DYCM	NA	179.22	-3.77_(predicted)	-0.18_(predicted)	187.98	102.32	2.08_8.83_(predicted)	NC(=O)CSC[C@@H](C(=O)O)[NH3]		95482	95482	17528-66-4	17528-66-4	asparagine	non-natural
YOF	3-fluorotyrosine	DYOF	NA	200.19	-1.66_(predicted)	2.03_(predicted)	210.5	124.83	1.57_9.48_8.37_(predicted)	OC(=O)[C@H](Cc1ccc(c(c1)F)O)[NH3]		643330	719318	7423-96-3	64024-06-2	phenylalanine	non-natural