Code	Name	Letter	D-Code	D-code-PDB	Molecular_weight	LogP	Sidechain_logP	Volume	Sidechain_volume	pKa	SMILES	Fixed SMILES	Pubchem#	D-Pubchem#	CAS	D-CAS	family	natural
DPP	2,3-Diaminopropanoic acid	Ṛ 	DDPP	2RA	105.12	-3.42_(predicted)	-0.57	116.32	30.66	2.1_6.59_8.09_(predicted)	NC[C@@H]([C](=O)=O)N	N[C@@H](CN)C(=O)O	97328		4033-39-0	1915-96-4	lysine	non-natural
ESC	Ethionine	Ṝ 	DESC		164.25	-1.99_(predicted)	1.95	196.56	110.9	2.61_9.5_(predicted)	CCSCC[C@@H](C(=O)O)N	N[C@@H](CCSCC)C(=O)O	25674	92124	13073-35-3	535-32-0	methionine	non-natural
F2F	3,4-Difluoro-phenylalanine	Ṟ 	DF2F		202.18	-1.21_(predicted)	2.49_(predicted)	208.48	122.82	1.4_9.42_(predicted)	OC(=O)[C@H](Cc1ccc(c(c1)F)F)N	N[C@@H](Cc1ccc(c(c1)F)F)C(=O)O	716295		31105-90-5	249648-08-6	phenylalanine	non-natural
FCL	3-chloro-Phenylalanine	Ṡ 	DFCL		200.64	-0.78_(predicted)	3.28	213.76	128.1	1.85_9.42_(predicted)	OC(=O)[C@H](Cc1cccc(c1)Cl)N	N[C@@H](Cc1cccc(c1)Cl)C(=O)O	2761492	7009409	80126-51-8	80126-52-9	phenylalanine	non-natural
FGA4	4-Fluoro-glutamic acid	Ṣ 	D4FG		166.13	-3.03_(predicted)	1.45_(predicted)	162.47	76.81	1.78_9.45_3.64_(predicted)	OC(=O)[C@H](C[C@@H](C(=O)O)F)N	N[C@@H](C[C@H](F)C(=O)O)C(=O)O			91383-47-0	149117-03-3	aspartic	non-natural
FGL	2-amino-propanedioic acid	Ṥ 			118.07	-1.84_(predicted)	-0.54	114.97	29.3	0.45_8.5_3.01_(predicted)	NC([C](=O)=O)[C](=O)=O	NC(C(=O)O)C(=O)O			1068-84-4		aspartic	non-natural
FLA	Trifluoro-alanine	Ṧ 	DFLA	TDD	144.07	-2.25_(predicted)	0.64	119.94	34.28	1.02_4.73_(predicted)	N[C@@H](C(F)(F)F)C(=O)O	N[C@@H](C(F)(F)F)C(=O)O					alanine	non-natural
FPG2	2-Fluoro-phenylglycine	Ṩ 	DFP6		170.16	-1.60_(predicted)	2.27	182.98	97.31	1.58_8.96_(predicted)	OC(=O)[C@H](c1ccccc1F)N	N[C@@H](c1ccccc1F)C(=O)O					phenylglycine	non-natural
FPG3	3-Fluoro-phenylglycine	Ṫ 	DFP7		170.16	-1.60_(predicted)	2.27	183.32	97.66	1.57_8.96_(predicted)	OC(=O)[C@H](c1cccc(c1)F)N	N[C@@H](c1cccc(c1)F)C(=O)O					phenylglycine	non-natural
FPG4	4-Fluoro-phenylglycine	Ṭ 	DFP8		170.16	-1.60_(predicted)	2.27	180.04	94.38	1.57_8.96_(predicted)	N[C@@H](c1ccc(cc1)F)C(=O)O	N[C@@H](c1ccc(cc1)F)C(=O)O	853015	124515	19883-57-9	93939-74-3	phenylglycine	non-natural
FPH2	2-Fluoro-Phenylalanine	Ṯ 	DFF2		184.19	-1.31_(predicted)	2.39_(predicted)	202.75	117.09	1.86_9.33_(predicted)	OC(=O)[C@H](Cc1ccccc1F)N	N[C@@H](Cc1ccccc1F)C(=O)O	716319	716322	19883-78-4	122839-51-4	phenylalanine	non-natural
FPH3	3-Fluoro-Phenylalanine	Ṱ 	DFF3		184.19	-1.31_(predicted)	2.75	203.08	117.42	1.86_9.41_(predicted)	OC(=O)[C@H](Cc1cccc(c1)F)N	N[C@@H](Cc1cccc(c1)F)C(=O)O	716315		19883-77-3	2629-54-1	phenylalanine	non-natural
FT6	6-fluoro-l-tryptophan	Ụ 	DFT6		223.22	-0.78	2.51_(predicted)	236.8	151.14	2.13_9.4_(predicted)	OC(=O)[C@H](Cc1c[nH]c2c1ccc(c2)F)N	N[C@@H](Cc1cNc2c1ccc(c2)F)C(=O)O			19310-00-0	108391-82-8	tryptophan	non-natural
FTR	5-Fluoro-tryptophan	Ủ 	DFTR		223.22	-0.71	2.51_(predicted)	239.19	153.53	2.12_9.4_(predicted)	N[C@H](C(=O)O)Cc1c[nH]c2c1cc(F)cc2	N[C@@H](Cc1c[nH]c2c1cc(F)cc2)C(=O)O			97749-24-1	16626-02-1	tryptophan	non-natural
FUA2	(2-furyl)-alanine	Ứ 	DFUO		156.16	-2.31_(predicted)	1.85	177.78	92.12	1.34_9.18_(predicted)	OC(=O)[C@H](Cc1ccco1)N	N[C@@H](Cc1ccco1)C(=O)O	2761503		127682-08-0	110772-46-8	histidine	non-natural
FVAL	3-Fluoro-valine	Ừ 	DFVL		136.15	-2.40_(predicted)	1.37_(predicted)	152.86	67.2	2.35_8.43_(predicted)	N[C@@H](C(F)(C)C)C(=O)O	N[C@@H](C(F)(C)C)C(=O)O					alanine	non-natural
GBUT	2-Amino-4-guanidinobutryric acid	Ử 	DGBT		161.18	-0.66_(predicted)	-0.58_(predicted)	183.35	97.69	2.31_9.7_12.32_(predicted)	O=[C](=O)[C@H](CC[NH]=[C](=[NH2])=[NH2])N	N[C@@H](CCNC(N)N)C(=O)O					arginine	non-natural
GDPR	2-Amino-3-guanidinopropionic acid	Ữ 	DGPA		147.16	-1.02_(predicted)	-0.94_(predicted)	159.06	73.39	2.06_6.75_12.24_(predicted)	N[C@H]([C](=O)=O)C[NH]=[C](=[NH2])=[NH2]	N[C@@H](CNC(N)N)C(=O)O					arginine	non-natural
GGB	Canavanine	Ự 	DGGB		176.17	-3.20_(predicted)	-0.48_(predicted)	192.41	106.75	2.1_9.16_6.64-(N)_(predicted)	N[C@H]([C](=O)=O)CCON=C(N)N	N[C@@H](CCON=C(N)N)C(=O)O	439202		543-38-4		arginine	non-natural
GHG	(2s,4s)-2,5-diamino-4-hydroxy-5-oxopentanoic acid	Ṳ 	DGHG		162.14	-3.83_(predicted)	-1.11_(predicted)	171.1	85.44	1.93_8.94_(predicted)	NC(=O)[C@H](C[C@@H]([C](=O)=O)N)O	N[C@@H](C[C@H](O)C(=O)N)C(=O)O					asparagine	non-natural
GME	5-o-methyl-glutamic acid	Ṵ 	DGME		162.16	-3.18_(predicted)	0.82	185.52	99.86	2.02_9.51_(predicted)	COC(=O)CC[C@@H](C(=O)O)N	N[C@@H](CCC(=O)OC)C(=O)O	68662	111219	1499-55-4	6461-04-7	aspartic	non-natural
HCS	homocysteine	Ṷ 	DHCS		136.19	-2.72_(predicted)	0.88_(predicted)	147.98	62.32	2.46_9.41_10.18_(predicted)	N[C@H](C(=O)O)CCS	N[C@@H](CCS)C(=O)O	91552		6027-13-0		cysteine	non-natural
HGA	glutamine hydroxamate	Ṹ 	DHGA	SD3	163.15	-4.25_(predicted)	-0.48_(predicted)	174.39	88.72	1.93_9.46_8.91-(OH)_(predicted)	ONC(=O)CC[C@@H](C(=O)O)N	N[C@@H](CCC(=O)NO)C(=O)O					asparagine	non-natural
HHK	(2s)-2,8-diaminooctanoic acid	Ṻ 	DHHK		176.26	-2.34_(predicted)	2.06	230.11	144.45	2.84_9.44_10.29_(predicted)	NCCCCCC[C@@H](C(=O)O)N	N[C@@H](CCCCCCN)C(=O)O					lysine	non-natural
HIL4	4-Hydroxy-L-isoleucine	Ṽ 	DHIL		148.18	-2.82_(predicted)	0.65	175.95	90.28	2.46_9.22_(predicted)	C[C@H]([C@@H]([C@@H](C(=O)O)N)C)O	N[C@@H]([C@H]([C@@H](C)O)C)C(=O)O	2773624		781658-23-9		serine	non-natural
HL2	(2s,3r)-2-amino-3-hydroxy-4-methylpentanoic acid	Ṿ 	DHL2		148.18	-2.65_(predicted)	0.76	175.73	90.07	2.44_8.99_(predicted)	CC([C@H]([C@@H](C(=O)O)N)O)C	N[C@@H]([C@H](O)C(C)C)C(=O)O					serine	non-natural
HLEU	Homoleucine	Ẁ 	DHL1		145.2	-0.44_(predicted)	2.64_(predicted)	191.57	105.91	2.85_9.53_(predicted)	N[C@H]([C](=O)=O)CCC(C)C	N[C@@H](CCC(C)C)C(=O)O					alanine	non-natural
HLU	beta-hydroxyleucine	Ẃ 	DHLU		147.17	-1.77_(predicted)	0.76	178.34	92.68	2.44_8.99_(predicted)	CC([C@@H]([C@@H]([C](=O)=O)N)O)C	N[C@@H]([C@@H](O)C(C)C)C(=O)O	134611		5817-22-1		serine	non-natural
HOX	4-amino-L-phenylalanine	Ẅ 	DHOX		181.21	-2.2	1.39	208.82	123.15	1.54_9.52_4.24_(predicted)	N[C@H](C(=O)O)Cc1ccc(cc1)N	N[C@@H](Cc1ccc(cc1)N)C(=O)O	151001		943-80-6	102281-45-8	phenylalanine	non-natural
HPE	Homophenylalanine	Ẇ 	DHPE		180.22	-1.2	3.15	218.78	133.11	2.55_9.52_(predicted)	N[C@H](C(=O)O)CCc1ccccc1	N[C@@H](CCc1ccccc1)C(=O)O	2724505		943-73-7	82795-51-5	phenylalanine	non-natural
HQA	3-(8-hydroxyquinolin-3-yl)-l-alanine	Ẉ 	DHQA		233.24	-1.50_(predicted)	2.20_(predicted)	255.25	169.59	1.48_9.66_2.66_9.4_(predicted)	OC(=O)[C@H](Cc1cnc2c(c1)cccc2O)N	N[C@@H](Cc1cnc2c(c1)cccc2O)C(=O)O					phenylalanine	non-natural
HRG	homoarginine	Ẋ 	DHRG		190.24	-3.9	0.31_(predicted)	225.15	139.49	2.49_9.45_12.23_(predicted)	[NH2]=[C](=[NH]CCCC[C@@H](C(=O)O)N)=[NH2]	N[C@@H](CCCCNC(N)N)C(=O)O			156-86-5	110798-13-5	arginine	non-natural
HRP	5-Hydroxy-tryptophan	Ẍ 	DHRP		221.23	-1.64_(predicted)	2.06_(predicted)	242.85	157.19	2.15_9.18_9.63_(predicted)	OC(=O)[C@H](Cc1c[nH]c2c1cc(O)cc2)N	N[C@@H](Cc1cNc2c1cc(O)cc2)C(=O)O	439280		4350-09-8		tryptophan	non-natural
HSER	homoserine	Ỳ 	DHSE		120.13	-3.69_(predicted)	-0.3	137.74	52.08	2.23_9.16_(predicted)	OCC[C@@H](C(=O)O)N	N[C@@H](CCO)C(=O)O	12647	2724170	672-15-1	6027-21-0	serine	non-natural
HTR	beta-hydroxy-tryptophane	Ỵ 	DHTR		221.23	-2.39_(predicted)	1.16_(predicted)	238.5	152.84	2.3_8.83_(predicted)	OC(=O)[C@H]([C@H](c1c[nH]c2c1cccc2)O)N	N[C@@H]([C@H](c1c[nH]c2c1cccc2)O)C(=O)O					tryptophan	non-natural
HVA	3-hydroxy-l-valine	Ỷ 	DHVA	DHV	133.15	-2.55_(predicted)	0.05	152.99	67.33	2.34_9.08_(predicted)	N[C@@H](C(O)(C)C)[C](=O)=O	N[C@@H](C(O)(C)C)C(=O)O	192763		2280-27-5	2280-28-6	serine	non-natural
I2M	3-methyl-l-alloisoleucine	Ỹ 	DI2M		146.21	-1.28_(predicted)	2.64_(predicted)	184.17	98.51	2.85_9.31_(predicted)	CCC([C@@H](C(=O)O)N)(C)C	N[C@@H](C(CC)(C)C)C(=O)O					alanine	non-natural
IGL	alpha-amino-2-indanacetic acid	Ẏ 	DIGL		191.23	-0.23_(predicted)	3.33	226.06	140.4	2.4_9.56_(predicted)	N[C@H]([C](=O)=O)[C@@H]1Cc2c(C1)cccc2	N[C@@H](C1Cc2c(C1)cccc2)C(=O)O					alanine	non-natural
IIL	Allo-Isoleucine	Ẑ 	DIIL		132.18	-1.76	2.89	171.18	85.52	2.79_9.59_(predicted)	CC[C@H]([C@@H](C(=O)O)N)C	N[C@@H]([C@@H](CC)C)C(=O)O		94206	1509-34-8	1509-35-9	alanine	non-natural
ILX	4,5-dihydroxy-isoleucine	Ẓ 	DILX		163.17	-2.99_(predicted)	-0.18_(predicted)	187.58	101.92	2.2_8.9_(predicted)	OC[C@@H]([C@@H]([C@@H]([C](=O)=O)N)C)O	N[C@@H]([C@H]([C@H](CO)O)C)C(=O)O					serine	non-natural
IYR	3-iodo-tyrosine	Ẕ 	DIYR		308.09	-1.11_(predicted)	2.58_(predicted)	228.89	143.23	1.54_9.5_8.16_(predicted)	OC(=O)[C@H](Cc1ccc(c(c1)I)O)N	N[C@@H](Cc1ccc(c(c1)I)O)C(=O)O	439744		70-78-0		phenylalanine	non-natural
KYN	kynurenine	Ỻ 	DKYN		209.22	-2.18_(predicted)	1.63	229.38	143.72	1.19_8.96_2.43_(predicted)	OC(=O)[C@H](CC(=O)c1ccccc1N)N	N[C@@H](CC(=O)c1ccccc1N)C(=O)O	161166	1152206	2922-83-0	13441-51-5	phenylalanine	non-natural
LDO	6-hydroxy-l-norleucine	Ỽ 	DLDO	DDO	148.18	-2.98_(predicted)	0.84	182.18	96.52	2.46_9.53_(predicted)	OCCCC[C@@H](C(=O)O)N	N[C@@H](CCCCO)C(=O)O	97725		6033-32-5		serine	non-natural
LE1	Penicillamine	Ỿ 	DLE1	LEI	150.22	-1.78	1.31_(predicted)	162.89	77.23	2.56_9.09_9.85_(predicted)	N[C@@H](C(S)(C)C)C(=O)O	N[C@@H](C(S)(C)C)C(=O)O		5852	1113-41-3	52-67-5	cysteine	non-natural
LED	(4r)-5-oxo-l-leucine	ẞ 	DLED		146.16	-3.00_(predicted)	0.77_(predicted)	173.37	87.71	2.25_9.51_(predicted)	O=C[C@@H](C[C@@H](C(=O)O)N)C	N[C@@H](C[C@@H](C)C=O)C(=O)O					other	non-natural
LEF	(4s)-5-fluoro-l-leucine	ẜ 	DLEF		150.17	-1.87_(predicted)	1.90_(predicted)	175.89	90.23	2.52_9.52_(predicted)	FC[C@H](C[C@@H](C(=O)O)N)C	N[C@@H](C[C@H](C)CF)C(=O)O					alanine	non-natural
LME	(3r)-3-methyl-l-glutamic acid	Ā 	DLME		161.16	-2.19_(predicted)	0.79	176.87	91.21	2.02_9.6_4.24_(predicted)	O=[C](=O)C[C@H]([C@@H](C(=O)O)N)C	N[C@@H]([C@H](C)CC(O)=O)C(=O)O					aspartic	non-natural
LMQ	3-methyl-l-glutamine	Ă 	DLMQ		161.18	-3.72_(predicted)	-0.21	180.35	94.68	2.26_9.38_(predicted)	NC(=O)C[C@@H]([C@@H](C(=O)O)N)C	N[C@@H]([C@@H](C)CC(N)=O)C(=O)O					asparagine	non-natural
LVG	vinylglycine	Ą 	DLVG		101.1	-1.67_(predicted)	1.13	121.26	35.6	2.42_8.95_(predicted)	C=C[C@@H]([C](=O)=O)N	N[C@@H](C=C)C(=O)O	156126		70982-53-5		alanine	non-natural
LVN	4-oxo-l-valine	Ć 	DLVN		131.13	-2.48_(predicted)	0.59	150.07	64.41	2.12_9.05_(predicted)	O=C[C@H]([C@@H]([C](=O)=O)N)C	N[C@@H]([C@H](C)C=O)C(=O)O					other	non-natural
M2S	3,3-dimethyl-methionine sulfoxide	Ĉ 	DM2S		194.27	-3.08_(predicted)	1.73_(predicted)	217.36	131.7	2_9.3_(predicted)	C[S@@](=O)CC([C@@H](C(=O)O)N)(C)C	N[C@@H](C(C)(C)C[S@@](C)=O)C(=O)O					other	non-natural
ME0	hydroxy-l-methionine	Ċ 	DME0		166.22	-2.95_(predicted)	0.66_(predicted)	184.55	98.89	2.23_9.5_(predicted)	OCSCC[C@@H](C(=O)O)N	N[C@@H](CCSCO)C(=O)O					methionine	non-natural
MEG	(3s)-3-methyl-l-glutamic acid	Č 	DMEG		161.16	-2.19_(predicted)	0.79	176.72	91.06	2.02_9.6_4.25_(predicted)	O=[C](=O)C[C@@H]([C@@H](C(=O)O)N)C	N[C@@H]([C@@H](C)CC(=O)O)C(=O)O					aspartic	non-natural
MEN	n-methyl-asparagine	Ď 	DMEN	MND	147.15	-4.12_(predicted)	-1.05	164.52	78.86	2.14_8.43_(predicted)	CNC(=O)C[C@@H](C(=O)O)N	N[C@@H](CC(=O)NC)C(=O)O	100393		7175-34-0	86070-35-1	asparagine	non-natural
MEQ	n5-methyl-glutamine	Đ 	DMEQ		161.18	-3.76_(predicted)	0.01_(predicted)	188.27	102.61	2.23_9.31_(predicted)	CNC(=O)CC[C@@H](C(=O)O)N	N[C@@H](CCC(=O)NC)C(=O)O					asparagine	non-natural
MHO	s-oxymethionine	Ē 	DMHO		166.22	-3.91_(predicted)	0.77_(predicted)	183.35	97.68	1.74_9.51_(predicted)	C[S@@](=O)CC[C@@H](C(=O)O)N	N[C@@H](CC[S@](=O)C)C(=O)O	158980		3226-65-1		methionine	non-natural
MOT5	5-Methoxy-tryptophan	Ĕ 	D5XW		235.26	-1.31_(predicted)	2.38_(predicted)	267.48	181.82	2.22_9.42_(predicted)	COc1ccc2c(c1)c(c[nH]2)C[C@@H](C(=O)O)N	N[C@@H](Cc1cNc2ccc(OC)cc12)C(=O)O			25197-96-0	89496-02-6	tryptophan	non-natural
MP34	3,4-Dimethyl-phenylalanine	Ė 	DM34		193.24	0.20_(predicted)	3.7	240.27	154.61	2.67_9.47_(predicted)	O=[C](=O)[C@H](Cc1ccc(c(c1)C)C)N	N[C@@H](Cc1ccc(c(c1)C)C)C(=O)O			142995-28-6		phenylalanine	non-natural
MPH2	2-Methyl-phenylalanine	Ę 	D2MF		180.22	-1.04_(predicted)	3.12	217.69	132.02	2.58_9.46_(predicted)	OC(=O)[C@H](Cc1ccccc1C)N	N[C@@H](Cc1ccccc1C)C(=O)O	2761493		80126-53-0		phenylalanine	non-natural
MTR5	5-Methyl-tryptophan	Ě 	D5MW		219.26	-0.92_(predicted)	2.78_(predicted)	255.65	169.98	2.61_9.41_(predicted)	Cc1cc2c(C[C@@H](C(=O)O)N)c[nH]c2cc1	N[C@@H](Cc1cNc2ccc(C)cc12)C(=O)O	150990		154-06-3	99295-79-1	tryptophan	non-natural
MTR6	6-Methyl-tryptophan	Ĝ 	D6MW		219.26	-0.92_(predicted)	2.78_(predicted)	255.63	169.97	2.61_9.41_(predicted)	OC(=O)[C@H](Cc1c[nH]c2c1ccc(c2)C)N	N[C@@H](Cc1cNc2c1ccc(c2)C)C(=O)O	164910		1991-93-1		tryptophan	non-natural
MTY	m-Tyrosine	Ğ 	DMTY		182.2	-1.76_(predicted)	1.98	206.75	121.09	2_9.14_9.52_(predicted)	OC(=O)[C@H](Cc1cccc(c1)O)N	N[C@@H](Cc1cccc(c1)O)C(=O)O	6950578	6950580	587-33-7	32140-49-1	phenylalanine	non-natural
NAL	2-Naphthyl-alanine	Ġ 	DNAL		216.26	-0.15	4	253.11	167.45	2.61_9.44_(predicted)	OC(=O)[C@H](Cc1ccc2c(c1)cccc2)N	N[C@@H](Cc1ccc2c(c1)cccc2)C(=O)O	185915		58438-03-2	76985-09-6	phenylalanine	non-natural
NAO1	5-hydroxy-1-naphthalene	Ģ 	D51N		232.25	-0.51_(predicted)	3.18_(predicted)	260.31	174.65	2.24_9.25_9.81_(predicted)	OC(=O)[C@H](Cc1cccc2c1cc(O)cc2)N	N[C@@H](Cc1cccc2c1cc(O)cc2)C(=O)O					phenylalanine	non-natural
NAO2	6-hydroxy-2-naphthalene	Ĥ 	D62N		232.25	-0.51_(predicted)	3.18_(predicted)	261.2	175.53	2.23_9.27_9.82_(predicted)	OC(=O)[C@H](Cc1ccc2c(c1)cc(cc2)O)N	N[C@@H](Cc1ccc2c(c1)cc(cc2)O)C(=O)O					phenylalanine	non-natural
NIY	meta-nitro-tyrosine	Ħ 	DNIY		226.19	-0.50_(predicted)	2.15	233.44	147.78	0.96_9.48_6.3-(OH)_(predicted)	O=[C](=O)[C@H](Cc1ccc(c(c1)N(=O)=O)O)N	N[C@@H](Cc1ccc(c(c1)N(=O)=O)O)C(=O)O	65124		621-44-3	32988-39-9	phenylalanine	non-natural
NLE	Norleucine	Ĩ 	DNLE	DNE	131.17	-1.53	2.89	171.92	86.26	2.79_9.53_(predicted)	CCCC[C@@H]([C](=O)=O)N	N[C@@H](CCCC)C(=O)O	21236	456468	327-57-1	327-56-0	alanine	non-natural
NVA	Norvaline	Ī 	DNVA		117.15	-1.86	2.36	149.67	64.01	2.36_9.76	CCC[C@@H]([C](=O)=O)N	N[C@@H](CCC)C(=O)O	65098	439575	6600-40-4	2013-12-9	alanine	non-natural
OAS	o-acetylserine	Ĭ 	DOAS		148.14	-3.48_(predicted)	0.18	164.71	79.05	1.86_8.6_(predicted)	CC(=O)OC[C@@H](C(=O)O)N	N[C@@H](COC(=O)C)C(=O)O	99478		5147-00-2	44901-25-9	other	non-natural
OBF	(2s)-2-amino-4,4-difluorobutanoic acid	Į 	DOBF		140.11	-2.16_(predicted)	0.75	141.26	55.6	1.79_9.36_(predicted)	N[C@H](C(=O)O)CC(F)F	N[C@@H](CC(F)F)C(=O)O			121960-22-3		alanine	non-natural
OCY	s-(2-hydroxyethyl)-l-cysteine	İ 	DOCY		165.21	-2.52_(predicted)	0.19_(predicted)	184.75	99.09	2.26_9.14_(predicted)	OCCSC[C@@H]([C](=O)=O)N	N[C@@H](CSCCO)C(=O)O	119224		6367-98-2	85955-36-8	serine	non-natural
OLT	o-methyl-l-threonine	Ĳ 	DOLT		134.15	-3.08_(predicted)	0.45_(predicted)	158.68	73.01	2.34_8.89_(predicted)	CO[C@@H]([C@@H](C(=O)O)N)C	N[C@@H]([C@H](OC)C)C(=O)O	2724875		4144-02-9		other	non-natural
OMT	Methionine sulfone	Ĵ 	DOMT		182.22	-3.1	-0.03_(predicted)	194.49	108.83	1.55_9.49_(predicted)	OC(=O)[C@H](CCS(=O)(=O)C)N	N[C@@H](CCS(=O)(=O)C)C(=O)O			7314-32-1		methionine	non-natural
OMX	(betar)-beta-hydroxy-l-tyrosine	Ķ 	DOMX		198.2	-2.88_(predicted)	0.25	213	127.34	1.76_8.8_9.49-(para-OH)_(predicted)	OC(=O)[C@H]([C@@H](c1ccc(cc1)O)O)N	N[C@@H]([C@@H](c1ccc(cc1)O)O)C(=O)O					phenylalanine	non-natural
OMY	(betar)-3-chloro-beta-hydroxy-l-tyrosine	Ĺ 	DOMY	OMZ	232.64	-2.25_(predicted)	1.31_(predicted)	228.77	143.11	1.42_8.93_7.62_(predicted)	OC(=O)[C@H]([C@@H](c1ccc(c(c1)Cl)O)O)N	N[C@@H]([C@@H](c1ccc(c(c1)Cl)O)O)C(=O)O					phenylalanine	non-natural
ONL	5-oxo-l-norleucine	Ļ 	DONL		146.16	-3.35_(predicted)	0.29	173.68	88.02	2.25_9.51_(predicted)	CC(=O)CC[C@@H](C(=O)O)N	N[C@@H](CCC(=O)C)C(=O)O					other	non-natural
ORN	Ornithine	Ľ 	DORN	ORD	133.17	-4.41	0.48	165.17	79.5	2.67_9.44_9.96_(predicted)	NCCC[C@@H]([C](=O)=O)N	N[C@@H](CCCN)C(=O)O	6262		70-26-8	410523-47-6	lysine	non-natural
OTYR	o-Tyrosine	Ŀ 	D2TR		182.2	-1.76_(predicted)	1.98	208.34	122.68	2.01_8.88_9.38_(predicted)	OC(=O)[C@H](Cc1ccccc1O)N	N[C@@H](Cc1ccccc1O)C(=O)O	6950574		709-16-0	24008-77-3	phenylalanine	non-natural
PBF	4-benzoyl-phenylalanine	Ł 	DPBF		270.3	-0.07_(predicted)	3.63_(predicted)	315.08	229.42	1.59_9.21_(predicted)	N[C@H](C(=O)O)Cc1ccc(cc1)C(=O)c1ccccc1	N[C@@H](Cc1ccc(cc1)C(=O)c1ccccc1)C(=O)O			104504-45-2	201466-03-7	phenylalanine	non-natural
PF5	pentafluoro-phenylalanine	Ń 	DPF5		256.15	-0.91_(predicted)	2.79_(predicted)	224.06	138.39	0.34_9.17_(predicted)	N[C@H](C(=O)O)Cc1c(F)c(F)c(c(c1F)F)F	N[C@@H](Cc1c(F)c(F)c(c(c1F)F)F)C(=O)O		6992999	138109-65-6	40332-58-9	phenylalanine	non-natural
PFF	4-Fluoro-Phenylalanine	Ņ 	DPFF		184.19	-1.89	2.58	203.09	117.42	1.86_9.45_(predicted)	N[C@H](C(=O)O)Cc1ccc(cc1)F	N[C@@H](Cc1ccc(cc1)F)C(=O)O	716312		1132-68-9	18125-46-7	phenylalanine	non-natural
PHI	4-Iodo-Phenylalanine	Ň 	DPHI		292.09	-0.76_(predicted)	2.94_(predicted)	222.19	136.52	1.9_9.44_(predicted)	N[C@H](C(=O)O)Cc1ccc(cc1)I	N[C@@H](Cc1ccc(cc1)I)C(=O)O	134497		24250-85-9	62561-75-5	phenylalanine	non-natural
PPN	4-Nitro-phenylalanine	Ŋ 	DPPN		210.19	-1.25	2.37	223.74	138.07	1.16_9.37_(predicted)	O=[C](=O)[C@H](Cc1ccc(cc1)N(=O)=O)N	N[C@@H](Cc1ccc(cc1)N(=O)=O)C(=O)O	13706	679497	949-99-5	56613-61-7	phenylalanine	non-natural
PTR	phosphotyrosine	Ō 	DPTR		262.18	-3.07_(predicted)	0.63_(predicted)	257.71	172.04	1.98_9.46_6.21_1.25_(predicted)	OC(=O)[C@H](Cc1ccc(cc1)OP(=O)(O)O)N	N[C@@H](Cc1ccc(cc1)OP(=O)(O)O)C(=O)O	30819		21820-51-9	108321-25-1	phenylalanine	non-natural
PYR2	3-(2-Pyridyl)-alanine	Ŏ 	DY23		166.18	-1.56_(predicted)	1.11	193.91	108.25	1.77_9.27_3.04_(predicted)	O=[C](=O)[C@H](Cc1ccccn1)N	N[C@@H](Cc1ccccn1)C(=O)O	2761499	7019768	37535-51-6	37535-52-7	phenylalanine	non-natural
PYR3	3-(3-Pyridyl)-alanine	Ő 	DY33		167.19	-2.48_(predicted)	1.2	193.64	107.98	1.79_9.37_3.85_(predicted)	OC(=O)[C@H](Cc1cccnc1)N	N[C@@H](Cc1cccnc1)C(=O)O	152953		64090-98-8	70702-47-5	phenylalanine	non-natural
PYR4	3-(4-Pyridyl)-alanine	Œ 	DY34		167.19	-2.48_(predicted)	1.22	193.57	107.91	1.79_9.4_4.86_(predicted)	N[C@H](C(=O)O)Cc1ccncc1	N[C@@H](Cc1ccncc1)C(=O)O			178933-04-5	174096-41-4	phenylalanine	non-natural
PYZ1	3-(1-Pyrazolyl)-alanine	Ŕ 	DPZ4		156.16	-3.42_(predicted)	0.23	175.52	89.86	1.25_8.84_3.08-(ND1)_(predicted)	OC(=O)[C@H](Cn1cccn1)N	N[C@@H](Cn1cccn1)C(=O)O	151491		2734-48-7	2734-48-7	histidine	non-natural
QU32	3-(2-Quinolyl)-alanine	Ŗ 	DQ32		217.24	-1.11_(predicted)	2.59	250.24	164.58	1.66_9.29_2.44_(predicted)	OC(=O)[C@H](Cc1ccc2c(n1)cccc2)N	N[C@@H](Cc1ccc2c(n1)cccc2)C(=O)O			161513-46-8	170421-67-7	phenylalanine	non-natural
QU33	3-(3-quinolyl)-alanine	Ř 	DQ33		217.24	-1.14_(predicted)	2.53	248.18	162.52	2.22_9.38_3.22_(predicted)	OC(=O)[C@H](Cc1cnc2c(c1)cccc2)N	N[C@@H](Cc1cnc2c(c1)cccc2)C(=O)O					phenylalanine	non-natural
QU34	3-(4-quinolyl)-alanine	Ś 	DQ34		217.24	-1.14_(predicted)	2.61	248.44	162.78	2.25_9.38_4.3_(predicted)	OC(=O)[C@H](Cc1ccnc2c1cccc2)N	N[C@@H](Cc1ccnc2c1cccc2)C(=O)O					phenylalanine	non-natural
QU35	3-(5-Quinolyl)-alanine	Ŝ 	DQ35		217.24	-1.14_(predicted)	2.47	250.03	164.37	2.24_9.43_4.31_(predicted)	OC(=O)[C@H](Cc1ccc2c(c1)nccc2)N	N[C@@H](Cc1ccc2c(c1)nccc2)C(=O)O					phenylalanine	non-natural
QU36	3-(6-Quinolyl)-alanine	Ş 	DQ36		217.24	-1.23_(predicted)	2.47_(predicted)	249.91	164.24	2.17_9.43_5.18_(predicted)	OC(=O)[C@H](Cc1ccc2c(c1)cncc2)N	N[C@@H](Cc1ccc2c(c1)cncc2)C(=O)O					phenylalanine	non-natural
QX32	3-(2-quinoxalyl)-alanine	Š 	DQX3		218.23	-2.09_(predicted)	1.61	243.44	157.78	1.97_9.22_(predicted)	OC(=O)[C@H](Cc1cnc2c(n1)cccc2)N	N[C@@H](Cc1cnc2c(n1)cccc2)C(=O)O					phenylalanine	non-natural
SEP	phosphoserine	Ţ 	DSEP		186.08	-5.14_(predicted)	-1.55_(predicted)	168.6	82.94	2.22_8.65_6.71_1.75_(predicted)	OC(=O)[C@H](COP(=O)(O)O)N	N[C@@H](COP(=O)(O)O)C(=O)O	68841		407-41-0	73913-63-0	serine	non-natural
SLZ	thialysine	Ť 	DSLZ		166.24	-3.66_(predicted)	-0.06_(predicted)	186.92	101.26	2.52_9.03_9.74_(predicted)	N[C@H](C(=O)O)CSCCN	N[C@@H](CSCCN)C(=O)O	99558		2936-69-8		lysine	non-natural