Code	Name	Letter	D-Code	D-code-PDB	Molecular_weight	LogP	Sidechain_logP	Volume	Sidechain_volume	pKa	SMILES	Fixed SMILES	Pubchem#	D-Pubchem#	CAS	D-CAS	family	natural
SME	Methionine sulfoxide	Ŧ 	DSME		166.22	-3.91_(predicted)	0.77_(predicted)	183.87	98.21	1.74_9.51_(predicted)	C[S@@](=O)CC[C@@H](C(=O)O)N	N[C@@H](CC[S@](=O)C)C(=O)O	158980		3226-65-1		methionine	non-natural
STYA	Styrylalanine	Ũ 	DSYA		192.23	-0.77_(predicted)	3.35	233.17	147.5	2.51_9.48_(predicted)	OC(=O)[C@H](CC=Cc1ccccc1)N	N[C@@H](CC=Cc1ccccc1)C(=O)O			267650-37-3	264903-53-9	phenylalanine	non-natural
SYM	2s,4r-4-methylglutamate	Ū 	DSYM		161.16	-2.06_(predicted)	0.94	177.99	92.33	2_9.53_4.21_(predicted)	OC(=O)[C@H](C[C@H]([C](=O)=O)C)N	N[C@@H](C[C@H](C(=O)O)C)C(=O)O			31137-74-3		aspartic	non-natural
TBP4	4-tert-butyl-phenylalanine	Ŭ 	D4TF		222.3	0.26_(predicted)	5.17	278.4	192.74	2.69_9.46_(predicted)	N[C@H](C(=O)O)Cc1ccc(cc1)C(C)(C)C	N[C@@H](Cc1ccc(cc1)C(C)(C)C)C(=O)O	2761795		82372-74-5	274262-82-7	phenylalanine	non-natural
TEZA	3-(2-Tetrazolyl)-alanine	Ů 	DTEZ		158.14	-3.54_(predicted)	0.12_(predicted)	164.49	78.83	1.14_8.79_(predicted)	OC(=O)[C@H](Cn1nncn1)N	N[C@@H](Cn1nncn1)C(=O)O			405150-16-5		histidine	non-natural
TFG2	2-(Trifluoromethyl)-phenylglycine	Ű 	D2TG		220.17	-0.82_(predicted)	3.01	207.97	122.31	1.59_8.61_(predicted)	OC(=O)[C@H](c1ccccc1C(F)(F)F)N	N[C@@H](c1ccccc1C(F)(F)F)C(=O)O			240490-00-0	240490-00-0	phenylglycine	non-natural
TFG3	3-(Trifluoromethyl)-phenylglycine	Ų 	D3TG		220.17	-0.82_(predicted)	3.01	211.34	125.67	1.58_8.74_(predicted)	OC(=O)[C@H](c1cccc(c1)C(F)(F)F)N	N[C@@H](c1cccc(c1)C(F)(F)F)C(=O)O					phenylglycine	non-natural
TFG4	4-(Trifluoromethyl)-phenylglycine	Ŵ 	D4TG		220.17	-0.82_(predicted)	3.01	211.37	125.71	1.58_8.8_(predicted)	N[C@@H](c1ccc(cc1)C(F)(F)F)C(=O)O	N[C@@H](c1ccc(cc1)C(F)(F)F)C(=O)O			144789-75-3		phenylglycine	non-natural
TFLE	5,5,5-Trifluoro-leucine	Ŷ 	DTFL		186.15	-1.10_(predicted)	2.67_(predicted)	186.24	100.58	1.82_9.51_(predicted)	OC(=O)[C@H](C[C@@H](C(F)(F)F)C)N	N[C@@H](C[C@@H](C(F)(F)F)C)C(=O)O			25367-71-9	109719-09-7	alanine	non-natural
TFP2	2-(Trifluoromethyl)-phenylalanine	Ź 	D2TF		234.19	-0.52_(predicted)	3.17_(predicted)	230.73	145.07	1.86_9.37_(predicted)	OC(=O)[C@H](Cc1ccccc1C(F)(F)F)N	N[C@@H](Cc1ccccc1C(F)(F)F)C(=O)O	2761500		119009-47-1	130930-49-3	phenylalanine	non-natural
TFP3	3-(Trifluoromethyl)-phenylalanine	Ż 	D3TF		233.19	0.36_(predicted)	3.17_(predicted)	234.36	148.69	1.86_9.43_(predicted)	OC(=O)[C@H](Cc1cccc(c1)C(F)(F)F)N	N[C@@H](Cc1cccc(c1)C(F)(F)F)C(=O)O	2777600		14464-68-7	14464-67-6	phenylalanine	non-natural
TFP4	4-(Trifluoromethyl)-phenylalanine	Ž 	D4TM		233.19	0.36_(predicted)	3.17_(predicted)	234.38	148.71	1.86_9.44_(predicted)	N[C@H](C(=O)O)Cc1ccc(cc1)C(F)(F)F	N[C@@H](Cc1ccc(cc1)C(F)(F)F)C(=O)O	2761501	7004189	114926-38-4	114872-99-0	phenylalanine	non-natural
TH6	4-hydroxy-l-threonine	À 	DTH6		135.12	-3.78_(predicted)	-1.36	145.43	59.76	1.92_8.62_(predicted)	OC[C@H]([C@@H]([C](=O)=O)N)O	N[C@@H]([C@H](O)CO)C(=O)O	193577		21768-45-6		serine	non-natural
THA3	3-(3-thienyl)-alanine	Á 	D3TA		172.22	-1.73_(predicted)	2.34	188.53	102.87	2.07_9.83_(predicted)	OC(=O)[C@H](Cc1cscc1)N	N[C@@H](Cc1cscc1)C(=O)O			3685-51-6	152612-26-5	histidine	non-natural
THG2	2-thienylglycine	Â 	D2TH		158.2	-2.05	1.81	165.75	80.09	1.73_8.37_(predicted)	OC(=O)[C@H](c1cccs1)N	N[C@@H](c1cccs1)C(=O)O		736059	4052-59-9	43189-45-3	other	non-natural
THG3	3-thienylglycine	Ã 	D3TH		158.2	-2.02_(predicted)	1.81	165.53	79.86	1.79_8.52_(predicted)	OC(=O)[C@H](c1cscc1)N	N[C@@H](c1cscc1)C(=O)O	16220058		1194-87-2	1194-86-1	other	non-natural
THIC	Thio-citrulline	Ä 	DTVI		192.26	-0.68_(predicted)	0.46_(predicted)	212.1	126.44	2.69_9.23_(predicted)	OC(=O)[C@H](CCC[NH]=[C](=S)=[NH2])N	N[C@@H](CCCNC(=S)N)C(=O)O					arginine	non-natural
TIH	3-(2-thienyl)-alanine	Å 	DTIH		172.22	-1.69_(predicted)	2.33	188.84	103.18	2.05_9.27_(predicted)	OC(=O)[C@H](Cc1cccs1)N	N[C@@H](Cc1cccs1)C(=O)O	146719	7111750	22951-96-8	62561-76-6	histidine	non-natural
TPO	phosphothreonine	Æ 	DTPO	D11	200.11	-3.75_(predicted)	-1.19_(predicted)	187	101.33	2.27_8.72_6.7_1.72_(predicted)	C[C@H]([C@@H]([C](=O)=O)N)OP(O)(O)O	N[C@@H]([C@H](OP(=O)(O)O)C)C(=O)O			1114-81-4	96193-69-0	serine	non-natural
TRO	2-hydroxy-tryptophan	Ç 	DTRO		221.23	-1.30_(predicted)	2.39_(predicted)	238.51	152.84	2.2_8.64_8.63_(predicted)	OC(=O)[C@H](Cc1c(O)[nH]c2c1cccc2)N	N[C@@H](Cc1c(O)[nH]c2c1cccc2)C(=O)O					tryptophan	non-natural
TRX	6-hydroxy-tryptophan	È 	DTRX		220.22	-0.75_(predicted)	2.06_(predicted)	239.95	154.29	2.15_9.16_9.77_(predicted)	O=[C](=O)[C@H](Cc1c[nH]c2c1ccc(c2)O)N	N[C@@H](Cc1c[nH]c2c1ccc(c2)O)C(=O)O					tryptophan	non-natural
TRZ4	3-(1,2,4-Triazol-1-yl)-alanine	É 	DTZR		157.15	-3.65_(predicted)	0.00_(predicted)	170.58	84.91	0.82_8.84_2.07-(NE)_(predicted)	N[C@H](C(=O)O)Cn1cncn1	N[C@@H](Cn1cncn1)C(=O)O			4819-36-7		histidine	non-natural
TTQ	6-amino-7-hydroxy-l-tryptophan	Ê 	DTTQ		235.24	-1.43_(predicted)	1.38_(predicted)	250.75	165.09	1.64_9.27_9.82_3.54_(predicted)	N[C@H]([C](=O)=O)Cc1c[nH]c2c1ccc(c2O)N	N[C@@H](Cc1c[nH]c2c1ccc(c2O)N)C(=O)O					tryptophan	non-natural
TY2	3-Amino-L-tyrosine	Ë 	DTY2		197.21	-2.45_(predicted)	1.16	219.61	133.95	1.24_9.42_4.19_10.32_(predicted)	OC(=O)[C@H](Cc1ccc(c(c1)N)O)N	N[C@@H](Cc1ccc(c(c1)N)O)C(=O)O	160450		300-34-5		phenylalanine	non-natural
TYI	3,5-diiodotyrosine	Ì 	DTYI		433.99	-0.46_(predicted)	4.2	252.64	166.98	1.47_9.45_7.23_(predicted)	OC(=O)[C@H](Cc1cc(I)c(c(c1)I)O)N	N[C@@H](Cc1cc(I)c(c(c1)I)O)C(=O)O		7059641	300-39-0	16711-71-0	phenylalanine	non-natural
TYQ	3-amino-6-hydroxy-tyrosine	Í 	DTYQ		213.21	-2.80_(predicted)	0.89_(predicted)	223.61	137.95	0.99_8.98_11.56_5.2_9.62_(predicted)	OC(=O)[C@H](Cc1cc(N)c(cc1O)O)N	N[C@@H](Cc1cc(N)c(cc1O)O)C(=O)O					phenylalanine	non-natural
TZA4	(4-thiazolyl)-alanine	Î 	D4TH		173.21	-2.34_(predicted)	0.97	185.19	99.53	0.26_9.2_1.96_(predicted)	N[C@H](C(=O)O)Cc1cscn1	N[C@@H](Cc1cscn1)C(=O)O			136010-41-8	131896-42-9	histidine	non-natural
UN1	2-Aminoadipic acid	Ï 	DUN1	11C	162.16	-3.15_(predicted)	0.79	179.36	93.69	2.01_9.53_4.29_(predicted)	OC(=O)CCC[C@@H](C(=O)O)N	N[C@@H](CCCC(=O)O)C(=O)O	92136		542-32-5	7620-28-2	aspartic	non-natural
VAH	Hydroxynorvaline	Ð 	DVAH		133.15	-2.21_(predicted)	0.25	155.79	70.13	2.34_8.99_(predicted)	CC[C@H]([C@@H]([C](=O)=O)N)O	N[C@@H]([C@H](O)CC)C(=O)O	65097	65097	34042-00-7	34042-00-7	serine	non-natural
WFP	3,5-Difluoro-phenylalanine	Ñ 	DWFP		202.18	-1.21_(predicted)	2.49_(predicted)	208.53	122.87	1.4_9.38_(predicted)	N[C@H](C(=O)O)Cc1cc(F)cc(c1)F	N[C@@H](Cc1cc(F)cc(c1)F)C(=O)O	716307	716310	31105-91-6	266360-63-8	phenylalanine	non-natural
YCM	cysteine-s-acetamide	Ò 	DYCM		179.22	-3.77_(predicted)	-0.18_(predicted)	187.98	102.32	2.08_8.83_(predicted)	NC(=O)CSC[C@@H](C(=O)O)N	N[C@@H](CSCC(=O)N)C(=O)O	95482	95482	17528-66-4	17528-66-4	asparagine	non-natural
YOF	3-fluorotyrosine	Ó 	DYOF		200.19	-1.66_(predicted)	2.03_(predicted)	210.5	124.83	1.57_9.48_8.37_(predicted)	OC(=O)[C@H](Cc1ccc(c(c1)F)O)N	N[C@@H](Cc1ccc(c(c1)F)O)C(=O)O	643330	719318	7423-96-3	64024-06-2	phenylalanine	non-natural
DAL	d-Alanine	a			90.1	-2.85	1.09	107.08	21.42	2.35_9.87		N[C@H](C)C(=O)O	5950	71080	56-41-7	338-69-2	alanine	natural
DAR	d-Arginine	r			176.22	-4.2	-0.05_(predicted)	204.07	118.41	2.01_9.04_12.48		N[C@H](CCCNC(=N)N)C(=O)O	6322	71070	74-79-3	157-06-2	arginine	natural
DSG	d-Aspargine	n			133.13	-3.82	-1.26	142.64	56.97	2.02_8.8		N[C@H](CC(=O)N)C(=O)O	6267	439600	70-47-3	2058-58-4	asparagine	natural
DAS	d-Aspartate	d			134.11	-3.68	-0.17	137.99	52.33	2.1_9.82_3.9		N[C@H](CC(=O)O)C(=O)O	5960	83887	56-84-8	1783-96-6	aspartic	natural
DCY	d-Cysteine	c			122.17	-2.5	0.51_(predicted)	126.7	41.04	2.05_10.25_10.78		N[C@H](CS)C(=O)O	5862	92851	52-90-4	921-01-7	cysteine	natural
DGN	d-Glutamine	q			147.15	-3.15	-0.66	163.84	78.17	2.17_9.13		N[C@H](CCC(=O)N)C(=O)O	5961	145815	56-85-9	5959-95-5	asparagine	natural
DGL	d-Glutamate	e			148.14	-3.66	0.33	160.14	74.48	2.1_9.47_4.07		N[C@H](CCC(=O)O)C(=O)O	33032	23327	56-86-0	6893-26-1	aspartic	natural
DHI	d-Histidine	h			156.16	-2.52	0.23	168.04	82.38	1.77_9.18_6.1		N[C@H](Cc1c[nH]cn1)C(=O)O	6274	71083	71-00-1	351-50-8	histidine	natural
DIL	d-Isoleucine	i			132.18	-1.76	2.89	171.4	85.73	2.23_9.76		N[C@H]([C@H](CC)C)C(=O)O	6306	76551	73-32-5	319-78-8	alanine	natural
DLE	d-Leucine	l			132.18	-1.74	2.76	171.89	86.22	2.33_9.74		N[C@H](CC(C)C)C(=O)O	6106	439524	61-90-5	328-38-1	alanine	natural
DLY	d-Lysine	k			148.2	-3.05	0.86	185.41	99.75	2.18_8.95_10.53		N[C@H](CCCCN)C(=O)O	5962	57449	56-87-1	923-27-3	lysine	natural
MED	d-Methionine	m			150.22	-2	1.54	175.07	89.4	2.28_9.21		N[C@H](CCSC)C(=O)O	6137	84815	63-68-3	348-67-4	methionine	natural
DPN	d-Phenylalanine	f			166.2	-1.52	2.73	199.86	114.2	2.58_9.24		N[C@H](Cc1ccccc1)C(=O)O	6140	71567	63-91-2	673-06-3	phenylalanine	natural
DPR	d-Proline	p			116.14	-2.54	2.36	143.4	57.74	2_10.6		N1[C@@H](C(=O)O)CCC1	145742	8988	147-85-3	344-25-2	other	natural
DSN	d-Serine	s			106.1	-3.33	-0.74	117.37	31.71	2.21_9.15		N[C@H](CO)C(=O)O	5951	71077	56-45-1	312-84-5	serine	natural
DTH	d-Threonine	t			120.13	-2.98	-0.3	137.26	51.59	2.09_9.1		N[C@H]([C@@H](C)O)C(=O)O	6288	69435	72-19-5	632-20-2	serine	natural
DTR	d-Tryptophan	w			205.23	-1.06	2.6	233.78	148.12	2.38_9.39		N[C@H](Cc1c[nH]c2c1cccc2)C(=O)O	6305	9060	73-22-3	153-94-6	tryptophan	natural
DTY	d-Tyrosine	y			182.2	-2.26	1.97	208.29	122.63	2.2_9.11_10.07		N[C@H](Cc1ccc(cc1)O)C(=O)O	6057	71098	60-18-4	556-02-5	phenylalanine	natural
DVA	d-Valine	v			118.15	-2.26	2.36	149.25	63.59	2.29_9.27		N[C@H](C(C)C)C(=O)O	6287	71563	72-18-4	640-68-6	alanine	natural
DPG	d-Phenylglycine	ḁ 			152.17	-1.7	2.13	174.8	89.14	2.23_8.85_(predicted)		N[C@H](c1ccccc1)C(=O)O	99291	70134	2935-35-5	875-74-1	phenylglycine	non-natural
D0A1	d-4-methoxy-Phenylalanine	ạ 			196.22	-1.44_(predicted)	2.81	229.12	143.45	2.23_9.44_(predicted)		N[C@H](Cc1ccc(OC)cc1)C(=O)O	2723935	6950205	6230-11-1	39878-65-4	phenylalanine	non-natural
D0AF	d-7-hydroxy-l-tryptophan	ả 			220.22	-0.75_(predicted)	2.06_(predicted)	238.99	153.33	2.23_9.2_9.67_(predicted)		N[C@H](Cc1c[nH]c2c1cccc2O)C(=O)O	439280	199528	314062-44-7	4350-07-6	tryptophan	non-natural
D0BN	d-4-carbamimidoyl-l-phenylalanine	ấ 			209.25	-2.44_(predicted)	1.25_(predicted)	235.28	149.62	2.15_9.43_11.5_(predicted)		N[C@H](Cc1ccc(cc1)C(=N)N)C(=O)O	3040681		52820-75-4		phenylalanine	non-natural
D200	d-4-chloro-Phenylalanine	ầ 			199.63	-0.48	3.33	213.84	128.17	1.85_9.44_(predicted)		N[C@H](Cc1ccc(cc1)Cl)C(=O)O	736190	667429	14173-39-8	14091-08-8	phenylalanine	non-natural
D26P	d-2-amino-6-oxopimelic acid	ẩ 			189.17	-1.20_(predicted)	1.38_(predicted)	205.31	119.65	1.77_9.33_3.08_(predicted)		N[C@H](CCCC(C(=O)O)=O)C(=O)O	194695		75650-93-0		aspartic	non-natural
D2AG	d-2-Allyl-glycine	ẫ 			116.14	-2.26_(predicted)	1.77	141.88	56.22	2.3_9.6		N[C@H](CCCC(C(=O)O)=O)C(=O)O	167529	6992334	16338-48-0	54594-06-8	alanine	non-natural
D2AS	d-3-methyl-aspartic acid	ậ 			147.13	-2.41_(predicted)	0.33	155.96	70.29	1.87_9.68_3.55_(predicted)		N[C@@H]([C@H](C)(C(=O)O))C(=O)O	852	852	6667-60-3	6667-60-3	aspartic	non-natural
D2FM	d-s-(difluoromethyl)-homocysteine	ắ 			186.2	-1.41_(predicted)	2.19_(predicted)	188.28	102.61	1.95_9.5_(predicted)		N[C@H](CCSC(F)F)C(=O)O					methionine	non-natural
D2HF	d-2-fluoro-l-histidine	ằ 			175.16	-2.62_(predicted)	1.23_(predicted)	170.57	84.91	0.79_9.32_1.74_8.75_(predicted)		N[C@H](C[C@@H]1CN[C@@H](N1)F)C(=O)O	6613474		50444-78-5		histidine	non-natural
D2H1	d-2-fluoro-l-histidine(1)	ẳ 			174.15	-2.80_(predicted)	0.90_(predicted)	179.01	93.35	0.8_9.49_8.67_2.14_(predicted)		N[C@H](Cc1cnc(F)N1)C(=O)O	6613474		50444-78-5		histidine	non-natural
D2H2	d-2-fluoro-l-histidine(2)	ẵ 			174.15	-2.80_(predicted)	0.90_(predicted)	179	93.34	0.79_9.32_1.74_8.75_(predicted)		N[C@H](Cc1c[nH]c(n1)F)C(=O)O	6613474		50444-78-5		histidine	non-natural
D2NP	d-l-2-amino-6-methylene-pimelic acid	ặ 			187.19	-0.68_(predicted)	3.28_(predicted)	218.01	132.34	2.16_9.53_4.53_(predicted)		N[C@H](CCCC(=C)C(=O)O)C(=O)O					aspartic	non-natural
D32T	d-3-(4H-thieno[3,2-b]pyrrol-6-yl)-L-alanine	ḃ 			210.25	-0.63_(predicted)	2.18_(predicted)	220.9	135.24	2.74_9.37_(predicted)		N[C@@H](Cc1c[nH]c2c1scc2)C(=O)O					tryptophan	non-natural
D3CF	d-3-cyano-phenylalanine	ḅ 			191.21	-1.69_(predicted)	2.01_(predicted)	218.68	133.02	1.52_0.42_(predicted)		N[C@H](Cc1cccc(C#N)c1)C(=O)O	2734509	7009411	57213-48-6	263396-43-6	phenylalanine	non-natural
D3FG	d-(2s)-amino(3,5-dihydroxyphenyl)-ethanoic acid	ḇ 			184.17	-2.41_(predicted)	0.8	191.73	106.07	1.37_8.01_8.78_10.82_(predicted)		N[C@H](c1cc(O)cc(c1)O)C(=O)O	443586		162870-29-3		phenylglycine	non-natural
D3GL	d-4-hydroxy-glutamic-acid	ḉ 			163.13	-3.18_(predicted)	-0.72	167.87	82.21	1.68_9.16_3.5-(COO-)_(predicted)		N[C@H](C[C@@H](C(=O)O)O)C(=O)O			56614-13-2		aspartic	non-natural
D3MY	d-3-Chloro-tyrosine	ḋ 			216.64	-1.14_(predicted)	2.56_(predicted)	224.29	138.63	1.56_9.47_7.84_(predicted)		N[C@@H](Cc1ccc(c(c1)Cl)O)C(=O)O	110992		7423-93-0	35608-63-0	phenylalanine	non-natural
D4BF	d-4-Bromo-phenylalanine	ḍ 			245.09	-0.72_(predicted)	3.42	225.92	140.26	1.81_9.44_(predicted)		N[C@H](Cc1ccc(cc1)Br)C(=O)O	671214	671215	24250-84-8	62561-74-4	phenylalanine	non-natural
D4CF	d-4-cyano-phenylalanine	ḏ 			191.21	-1.69_(predicted)	2.01_(predicted)	218.69	133.03	1.52_9.42_(predicted)		N[C@H](Cc1ccc(cc1)C#N)C(=O)O			104531-20-6	167479-78-9	phenylalanine	non-natural
D4CY	d-nitrilo-l-methionine	ḑ 			161.2	-2.31_(predicted)	1.29_(predicted)	174.3	88.64	1.34_9.5_(predicted)		N[C@H](CCSC#N)C(=O)O					methionine	non-natural
D4FW	d-4-fluoro-tryptophan	ḓ 			223.22	-1.07	2.51_(predicted)	236.48	150.82	2.18_9.36_(predicted)		N[C@H](Cc1c[nH]c2c1c(F)ccc2)C(=O)O			25631-17-8	110221-04-0	tryptophan	non-natural
D4HZ	d-4-hydroxymethyl-phenylalanine	ḕ 			196.22	-2.29_(predicted)	1.58	229.11	143.45	2.23_9.44_(predicted)		N[C@H](Cc1ccc(CO)cc1)C(=O)O	193505		15742-88-8	15720-17-9	phenylalanine	non-natural
D4HT	d-4-hydroxy-tryptophan	ḗ 			220.22	-0.75_(predicted)	2.06_(predicted)	239.24	153.57	2.2_9.61_9.34_(predicted)		N[C@H](Cc1c[nH]c2c1c(O)ccc2)C(=O)O			25242-90-4		tryptophan	non-natural
D4IN	d-4-amino-l-tryptophan	ḙ 			220.25	-1.96_(predicted)	1.73_(predicted)	240.13	154.47	1.84_9.4_3.24_(predicted)		N[C@H](Cc1c[nH]c2c1c(N)ccc2)C(=O)O			540770-50-1		tryptophan	non-natural
D4PH	d-4-methyl-phenylalanine	ḛ 			180.22	-1.04_(predicted)	3.15	219.58	133.92	2.58_9.47_(predicted)		N[C@H](Cc1ccc(cc1)C)C(=O)O	151513	7015862	1991-87-3	49759-61-7	phenylalanine	non-natural
D6CL	d-6-carboxylysine	ḝ 			191.21	-5.00_(predicted)	-1.86	215.67	130	1.85_9.83_9.65_2.42_(predicted)		N[C@H](CCC[C@H](C(=O)O)N)C(=O)O					aspartic	non-natural
D6CW	d-6-chloro-l-tryptophan	ẹ 			238.67	0.23_(predicted)	3.04_(predicted)	247.22	161.56	2.1_9.4_(predicted)		N[C@H](Cc1c[nH]c2c1ccc(c2)Cl)C(=O)O	10062693		33468-35-8	56632-86-1	tryptophan	non-natural
DAA4	d-2-amino-5-hydroxypentanoic acid	ẻ 			134.15	-3.34_(predicted)	0.25	159.95	74.28	2.36_9.22_(predicted)		N[C@H](CCCO)C(=O)O			6152-89-2		serine	non-natural
DABA	d-2-Aminobutyric acid	ẽ 			103.12	-2.53	1.81	126.36	40.69	2.62_9.53_(predicted)		N[C@H](CC)C(=O)O	80283	439691	1492-24-6	2623-91-8	alanine	non-natural
DACZ	d-cis-amiclenomycin	ế 			198.26	-2.28_(predicted)	1.67_(predicted)	240.86	155.19	2.63_9.74_9.51_(predicted)		N[C@H](CC[C@@H]1C=C[C@@H](C=C1)N)C(=O)O	99594		53696-70-1	53696-70-1	alanine	non-natural
DADM	d-Adamanthane	ề 			223.31	1.33_(predicted)	4.22_(predicted)	279.98	194.32	2.58_9.51_(predicted)		N[C@H](C[C@]12C[C@H]3C[C@@H](C2)C[C@@H](C1)C3)C(=O)O					alanine	non-natural
DAGM	d-5-methyl-arginine	ể 			190.24	-0.79_(predicted)	0.38_(predicted)	222.52	136.86	2.48_9.12_12.39_(predicted)		N[C@H](CC[C@H](C)NC(=N)N)C(=O)O					arginine	non-natural
DAHB	d-beta-hydroxyasparagine	ễ 			149.12	-5.07_(predicted)	-1.51_(predicted)	149.18	63.52	1.8_7.89_12.64-(COH)_(predicted)		N[C@H]([C@@H](C(=O)N)O)C(=O)O					asparagine	non-natural
DAHP	d-2-Aminoheptanoic acid	ệ 			146.21	-1.03_(predicted)	3.39	193.71	108.04	2.85_9.53_(predicted)		N[C@H](CCCCC)C(=O)O			1115-90-8	1115-90-8	alanine	non-natural
DALC	d-3-cyclohexyl-alanine	ḟ 			172.25	-0.58	3.88	222.48	136.82	2.73_9.52_(predicted)		N[C@H](CC1CCCCC1)C(=O)O	712421	736026	27527-05-5	58717-02-5	alanine	non-natural
DALN	d-1-Naphthyl-alanine	ḡ 			215.25	-0.22	3.87	251.3	165.63	2.61_9.42_(predicted)		N[C@H](Cc1cccc2c1cccc2)C(=O)O	2724883		55516-54-6	78306-92-0	phenylalanine	non-natural
DALO	d-Allo-threonine	ḣ 			119.12	-2.98	-0.3	137.59	51.92	2.23_0.99_(predicted)		N[C@H]([C@H](C)O)C(=O)O	99289	90624	28954-12-3	24830-94-2	serine	non-natural
DNTL	d-3-(9-anthryl)-alanine	ḥ 			266.31	1.09_(predicted)	5.07	306.92	221.26	2.73_9.38_(predicted)		N[C@H](Cc1c2ccccc2cc2c1cccc2)C(=O)O			100896-08-0		phenylalanine	non-natural
DAPD	d-3-Methyl-phenylalanine	ḧ 			180.22	-1.04_(predicted)	3.2	219.56	133.9	2.58_9.45_(predicted)		N[C@H](Cc1cccc(c1)C)C(=O)O	2761494		114926-37-3		phenylalanine	non-natural
DAPM	d-m-amidinophenyl-3-alanine	ḩ 			209.25	-0.82_(predicted)	1.25_(predicted)	235.25	149.58	2.15_9.41_11.46_(predicted)		N[C@H](Cc1cccc(c1)C(=N)N)C(=O)O					phenylalanine	non-natural
DARO	d-c-gamma-hydroxy arginine	ḫ 			192.22	-2.16_(predicted)	-1.19_(predicted)	210.69	125.03	2.2_8.75_12.11_(predicted)		N[C@H](C[C@@H](O)CN=C(N)N)C(=O)O			61370-10-3		arginine	non-natural
DAS2	d-(2r)-2-amino-4-oxobutanoic acid	ỉ 			117.1	-3.05_(predicted)	0.45	130.36	44.7	1.95_8.98_(predicted)		N[C@H](CC=O)C(=O)O			15106-57-7	15106-57-7	other	non-natural
DZDA	d-azido-alanine	ị 			131.11	-1.58_(predicted)	2.11_(predicted)	139.29	53.63	1.66_8.94_4.27_(predicted)		N[C@H](CN=[N+]=N)C(=O)O	55785	55785	105661-40-3	105661-40-3	other	non-natural
DBB8	d-Phenylserine	ḭ 			182.2	-2.52_(predicted)	1.05	205.4	119.74	2.16_8.88_(predicted)		N[C@H]([C@@H](O)c1ccccc1)C(=O)O	73562	672406	32946-42-2	109120-55-0	phenylalanine	non-natural
DBCS	d-benzylcysteine	ḯ 			212.29	-1.22_(predicted)	2.37_(predicted)	243.78	158.12	2.42_9.14_(predicted)		N[C@H](CSCc1ccccc1)C(=O)O	193613		3054-01-1	23032-53-3	phenylalanine	non-natural
DBHD	d-beta-hydroxyaspartic acid	ḱ 			148.09	-2.65_(predicted)	-1.11	144.23	58.57	2.57_9.08_2.8-(COO-)_(predicted)		N[C@H]([C@H](O)C(=O)O)C(=O)O			7298-99-9		aspartic	non-natural
DBIF	d-4,4-biphenylalanine	ḳ 			242.29	0.22_(predicted)	4.63	289.66	204	2.49_9.44_(predicted)		N[C@H](Cc1ccc(cc1)c1ccccc1)C(=O)O	2761815		155760-02-4	170080-13-4	phenylalanine	non-natural
DBIU	d-5-bromo-l-isoleucine	ḵ 			211.08	-1.45_(predicted)	2.75	196.65	110.99	2.26_9.56_(predicted)		N[C@H]([C@@H](C)CCBr)C(=O)O					alanine	non-natural
DTH9	d-3-(3-benzothienyl)-alanine	ḷ 			221.28	0.49_(predicted)	3.30_(predicted)	239.68	154.02	2.36_9.34_(predicted)		N[C@H](Cc1csc2c1cccc2)C(=O)O			72120-71-9	111139-55-0	tryptophan	non-natural
DBTR	d-6-bromo-tryptophan	ḹ 			284.13	-0.59_(predicted)	3.10_(predicted)	258.06	172.4	2.04_9.4_(predicted)		N[C@H](Cc1c[nH]c2c1ccc(c2)Br)C(=O)O			52448-17-6	496930-10-0	tryptophan	non-natural
DBUG	d-Tertleucine	ḻ 			132.18	-1.77	2.76	166.25	80.58	2.79_9.32_(predicted)		N[C@H](C(C)(C)C)C(=O)O	164608	6950340	20859-02-3	26782-71-8	alanine	non-natural
DC2N	d-3-chloro-l-alanine	ḽ 			123.54	-1.89_(predicted)	0.91	123.21	37.55	1.7_8.52_(predicted)		N[C@H](CCl)C(=O)O	439772		2731-73-9	39217-38-4	alanine	non-natural
DCAN	d-canaline	ḿ 			135.14	-3.90_(predicted)	-0.30_(predicted)	152.27	66.6	2.24_9.46_4.4-(NH2)_(predicted)		N[C@H](CCON)C(=O)O	441443		496-93-5	128395-79-9	other	non-natural
DCCS	d-carboxymethylated cysteine	ṁ 			179.19	-2.24_(predicted)	1.35_(predicted)	183.74	98.08	1.84_9.14_4.05_(predicted)		N[C@H](CSCC(=O)O)C(=O)O	193653	6452242	638-23-3	50698-76-5	aspartic	non-natural
DCHG	d-Cyclohexylglycine	ṃ 			158.22	-0.9	3.44	201.13	115.47	2.67_9.58_(predicted)		N[C@H](C1CCCCC1)C(=O)O	736848	736849	14328-51-9	14328-52-0	alanine	non-natural
DCHP	d-3-chloro-4-hydroxy-phenylglycine	ṅ 			202.62	-1.43_(predicted)	2.15	198.79	113.13	1.28_8.85_7.82_(predicted)		N[C@H](c1ccc(c(c1)Cl)O)C(=O)O					phenylglycine	non-natural