L-Code,Name,D-Code,D-code-PDB,Molecular_weight,LogP,Sidechain_logP,Volume,Sidechain_volume,pKa,SMILES,Fixed SMILES,Pubchem#,D-Pubchem#,CAS,D-CAS,family,natural,file,Mol2SMILES
PYR3,3-(3-Pyridyl)-alanine,DY33,,167.19,-2.48_(predicted),1.2,193.64,107.98,1.79_9.37_3.85_(predicted),OC(=O)[C@H](Cc1cccnc1)[NH3],,152953.0,,64090-98-8,70702-47-5,phenylalanine,non-natural,PYR3,[NH3+]C(CC1CCCNC1)C(O)O
PYR4,3-(4-Pyridyl)-alanine,DY34,,167.19,-2.48_(predicted),1.22,193.57,107.91,1.79_9.4_4.86_(predicted),[NH3][C@H](C(=O)O)Cc1ccncc1,,,,178933-04-5,174096-41-4,phenylalanine,non-natural,PYR4,[NH3+]C(CC1CCNCC1)C(O)O
PYZ1,3-(1-Pyrazolyl)-alanine,DPZ4,,156.16,-3.42_(predicted),0.23,175.52,89.86,1.25_8.84_3.08-(ND1)_(predicted),OC(=O)[C@H](Cn1cccn1)[NH3],,151491.0,,2734-48-7,2734-48-7,histidine,non-natural,PYZ1,[NH3+]C(CN1CCCN1)C(O)O
QU32,3-(2-Quinolyl)-alanine,DQ32,,217.24,-1.11_(predicted),2.59,250.24,164.58,1.66_9.29_2.44_(predicted),OC(=O)[C@H](Cc1ccc2c(n1)cccc2)[NH3],,,,161513-46-8,170421-67-7,phenylalanine,non-natural,QU32,[NH3+]C(CC1CCC2CCCCC2N1)C(O)O
QU33,3-(3-quinolyl)-alanine,DQ33,,217.24,-1.14_(predicted),2.53,248.18,162.52,2.22_9.38_3.22_(predicted),OC(=O)[C@H](Cc1cnc2c(c1)cccc2)[NH3],,,,,,phenylalanine,non-natural,QU33,[NH3+]C(CC1CNC2CCCCC2C1)C(O)O
QU34,3-(4-quinolyl)-alanine,DQ34,,217.24,-1.14_(predicted),2.61,248.44,162.78,2.25_9.38_4.3_(predicted),OC(=O)[C@H](Cc1ccnc2c1cccc2)[NH3],,,,,,phenylalanine,non-natural,QU34,[NH3+]C(CC1CCNC2CCCCC12)C(O)O
QU35,3-(5-Quinolyl)-alanine,DQ35,,217.24,-1.14_(predicted),2.47,250.03,164.37,2.24_9.43_4.31_(predicted),OC(=O)[C@H](Cc1ccc2c(c1)nccc2)[NH3],,,,,,phenylalanine,non-natural,QU35,[NH3+]C(CC1CCC2CCCNC2C1)C(O)O
QU36,3-(6-Quinolyl)-alanine,DQ36,,217.24,-1.23_(predicted),2.47_(predicted),249.91,164.24,2.17_9.43_5.18_(predicted),OC(=O)[C@H](Cc1ccc2c(c1)cncc2)[NH3],,,,,,phenylalanine,non-natural,QU36,[NH3+]C(CC1CCC2CCNCC2C1)C(O)O
QX32,3-(2-quinoxalyl)-alanine,DQX3,,218.23,-2.09_(predicted),1.61,243.44,157.78,1.97_9.22_(predicted),OC(=O)[C@H](Cc1cnc2c(n1)cccc2)[NH3],,,,,,phenylalanine,non-natural,QX32,[NH3+]C(CC1CNC2CCCCC2N1)C(O)O
SEP,phosphoserine,DSEP,,186.08,-5.14_(predicted),-1.55_(predicted),168.6,82.94,2.22_8.65_6.71_1.75_(predicted),OC(=O)[C@H](COP(=O)(O)O)[NH3],,68841.0,,407-41-0,73913-63-0,serine,non-natural,SEP,[NH3+]C(CO[PH](O)(O)O)C(O)O
SEP2,phosphoserine (charge: -2),DSE2,,186.08,-5.14_(predicted),-1.55_(predicted),167.17,81.5,2.22_8.65_6.71_1.75_(predicted),OC(=O)[C@H](COP(=O)(O)O)[NH3],,68841.0,,407-41-0,73913-63-0,serine,non-natural,SEP2,[NH3+]C(CO[PH](O)(O)O)C(O)O
SLZ,thialysine,DSLZ,,166.24,-3.66_(predicted),-0.06_(predicted),186.92,101.26,2.52_9.03_9.74_(predicted),[NH3][C@H](C(=O)O)CSCC[NH3],,99558.0,,2936-69-8,,lysine,non-natural,SLZ,[NH3+]CCSCC([NH3+])C(O)O
SME,Methionine sulfoxide,DSME,,166.22,-3.91_(predicted),0.77_(predicted),183.87,98.21,1.74_9.51_(predicted),C[S@@](=O)CC[C@@H](C(=O)O)[NH3],,158980.0,,3226-65-1,,methionine,non-natural,SME,C[SH](O)CCC([NH3+])C(O)O
STYA,Styrylalanine,DSYA,,192.23,-0.77_(predicted),3.35,233.17,147.5,2.51_9.48_(predicted),OC(=O)[C@H](CC=Cc1ccccc1)[NH3],,,,267650-37-3,264903-53-9,phenylalanine,non-natural,STYA,[NH3+]C(CCCC1CCCCC1)C(O)O
SYM,"2s,4r-4-methylglutamate",DSYM,,161.16,-2.06_(predicted),0.94,177.99,92.33,2_9.53_4.21_(predicted),OC(=O)[C@H](C[C@H]([C](=O)=O)C)[NH3],,,,31137-74-3,,aspartic,non-natural,SYM,CC(CC([NH3+])C(O)O)C(O)O
TBP4,4-tert-butyl-phenylalanine,D4TF,,222.3,0.26_(predicted),5.17,278.4,192.74,2.69_9.46_(predicted),[NH3][C@H](C(=O)O)Cc1ccc(cc1)C(C)(C)C,,2761795.0,,82372-74-5,274262-82-7,phenylalanine,non-natural,TBP4,CC(C)(C)C1CCC(CC([NH3+])C(O)O)CC1
TEZA,3-(2-Tetrazolyl)-alanine,DTEZ,,158.14,-3.54_(predicted),0.12_(predicted),164.49,78.83,1.14_8.79_(predicted),OC(=O)[C@H](Cn1nncn1)[NH3],,,,405150-16-5,,histidine,non-natural,TEZA,[NH3+]C(CN1NCNN1)C(O)O
TFG2,2-(Trifluoromethyl)-phenylglycine,D2TG,,220.17,-0.82_(predicted),3.01,207.97,122.31,1.59_8.61_(predicted),OC(=O)[C@H](c1ccccc1C(F)(F)F)[NH3],,,,240490-00-0,240490-00-0,phenylglycine,non-natural,TFG2,[NH3+]C(C(O)O)C1CCCCC1C(F)(F)F
TFG3,3-(Trifluoromethyl)-phenylglycine,D3TG,,220.17,-0.82_(predicted),3.01,211.34,125.67,1.58_8.74_(predicted),OC(=O)[C@H](c1cccc(c1)C(F)(F)F)[NH3],,,,,,phenylglycine,non-natural,TFG3,[NH3+]C(C(O)O)C1CCCC(C(F)(F)F)C1
TFG4,4-(Trifluoromethyl)-phenylglycine,D4TG,,220.17,-0.82_(predicted),3.01,211.37,125.71,1.58_8.8_(predicted),[NH3][C@@H](c1ccc(cc1)C(F)(F)F)C(=O)O,[NH3][C@@H](c1ccc(cc1)C(F)(F)F)C(=O)O,,,144789-75-3,,phenylglycine,non-natural,TFG4,[NH3+]C(C(O)O)C1CCC(C(F)(F)F)CC1
TFLE,"5,5,5-Trifluoro-leucine",DTFL,,186.15,-1.10_(predicted),2.67_(predicted),186.24,100.58,1.82_9.51_(predicted),OC(=O)[C@H](C[C@@H](C(F)(F)F)C)[NH3],,,,25367-71-9,109719-09-7,alanine,non-natural,TFLE,CC(CC([NH3+])C(O)O)C(F)(F)F
TFP2,2-(Trifluoromethyl)-phenylalanine,D2TF,,234.19,-0.52_(predicted),3.17_(predicted),230.73,145.07,1.86_9.37_(predicted),OC(=O)[C@H](Cc1ccccc1C(F)(F)F)[NH3],,2761500.0,,119009-47-1,130930-49-3,phenylalanine,non-natural,TFP2,[NH3+]C(CC1CCCCC1C(F)(F)F)C(O)O
TFP3,3-(Trifluoromethyl)-phenylalanine,D3TF,,233.19,0.36_(predicted),3.17_(predicted),234.36,148.69,1.86_9.43_(predicted),OC(=O)[C@H](Cc1cccc(c1)C(F)(F)F)[NH3],,2777600.0,,14464-68-7,14464-67-6,phenylalanine,non-natural,TFP3,[NH3+]C(CC1CCCC(C(F)(F)F)C1)C(O)O
TFP4,4-(Trifluoromethyl)-phenylalanine,D4TM,,233.19,0.36_(predicted),3.17_(predicted),234.38,148.71,1.86_9.44_(predicted),[NH3][C@H](C(=O)O)Cc1ccc(cc1)C(F)(F)F,,2761501.0,7004189.0,114926-38-4,114872-99-0,phenylalanine,non-natural,TFP4,[NH3+]C(CC1CCC(C(F)(F)F)CC1)C(O)O
TH6,4-hydroxy-l-threonine,DTH6,,135.12,-3.78_(predicted),-1.36,145.43,59.76,1.92_8.62_(predicted),OC[C@H]([C@@H]([C](=O)=O)[NH3])O,,193577.0,,21768-45-6,,serine,non-natural,TH6,[NH3+]C(C(O)O)C(O)CO
THA3,3-(3-thienyl)-alanine,D3TA,,172.22,-1.73_(predicted),2.34,188.53,102.87,2.07_9.83_(predicted),OC(=O)[C@H](Cc1cscc1)[NH3],,,,3685-51-6,152612-26-5,histidine,non-natural,THA3,[NH3+]C(CC1CCSC1)C(O)O
THG2,2-thienylglycine,D2TH,,158.2,-2.05,1.81,165.75,80.09,1.73_8.37_(predicted),OC(=O)[C@H](c1cccs1)[NH3],,,736059.0,4052-59-9,43189-45-3,other,non-natural,THG2,[NH3+]C(C(O)O)C1CCCS1
THG3,3-thienylglycine,D3TH,,158.2,-2.02_(predicted),1.81,165.53,79.86,1.79_8.52_(predicted),OC(=O)[C@H](c1cscc1)[NH3],,16220058.0,,1194-87-2,1194-86-1,other,non-natural,THG3,[NH3+]C(C(O)O)C1CCSC1
THIC,Thio-citrulline,DTVI,,192.26,-0.68_(predicted),0.46_(predicted),212.1,126.44,2.69_9.23_(predicted),OC(=O)[C@H](CCC[NH]=[C](=S)=[NH2])[NH3],,,,,,arginine,non-natural,THIC,NC(S)NCCCC([NH3+])C(O)O
TIH,3-(2-thienyl)-alanine,DTIH,,172.22,-1.69_(predicted),2.33,188.84,103.18,2.05_9.27_(predicted),OC(=O)[C@H](Cc1cccs1)[NH3],,146719.0,7111750.0,22951-96-8,62561-76-6,histidine,non-natural,TIH,[NH3+]C(CC1CCCS1)C(O)O
TPO,phosphothreonine,DTPO,D11,200.11,-3.75_(predicted),-1.19_(predicted),187.0,101.33,2.27_8.72_6.7_1.72_(predicted),C[C@H]([C@@H]([C](=O)=O)[NH3])OP(O)(O)O,,,,1114-81-4,96193-69-0,serine,non-natural,TPO,CC(O[PH](O)(O)O)C([NH3+])C(O)O
TPO2,phosphothreonine  (charge: -2),DPO6,,200.11,-3.75_(predicted),-1.19_(predicted),185.69,100.03,2.27_8.72_6.7_1.72_(predicted),C[C@H]([C@@H]([C](=O)=O)[NH3])OP(O)(O)O,,,,1114-81-4,96193-69-0,serine,non-natural,TPO2,CC(O[PH](O)(O)O)C([NH3+])C(O)O
TRO,2-hydroxy-tryptophan,DTRO,,221.23,-1.30_(predicted),2.39_(predicted),238.51,152.84,2.2_8.64_8.63_(predicted),OC(=O)[C@H](Cc1c(O)[nH]c2c1cccc2)[NH3],,,,,,tryptophan,non-natural,TRO,[NH3+]C(CC1C(O)NC2CCCCC21)C(O)O
TRX,6-hydroxy-tryptophan,DTRX,,220.22,-0.75_(predicted),2.06_(predicted),239.95,154.29,2.15_9.16_9.77_(predicted),O=[C](=O)[C@H](Cc1c[nH]c2c1ccc(c2)O)[NH3],,,,,,tryptophan,non-natural,TRX,[NH3+]C(CC1CNC2CC(O)CCC12)C(O)O
TRZ4,"3-(1,2,4-Triazol-1-yl)-alanine",DTZR,,157.15,-3.65_(predicted),0.00_(predicted),170.58,84.91,0.82_8.84_2.07-(NE)_(predicted),[NH3][C@H](C(=O)O)Cn1cncn1,,,,4819-36-7,,histidine,non-natural,TRZ4,[NH3+]C(CN1CNCN1)C(O)O
TTQ,6-amino-7-hydroxy-l-tryptophan,DTTQ,,235.24,-1.43_(predicted),1.38_(predicted),250.75,165.09,1.64_9.27_9.82_3.54_(predicted),[NH3][C@H]([C](=O)=O)Cc1c[nH]c2c1ccc(c2O)N,,,,,,tryptophan,non-natural,TTQ,NC1CCC2C(CC([NH3+])C(O)O)CNC2C1O
TY2,3-Amino-L-tyrosine,DTY2,,197.21,-2.45_(predicted),1.16,219.61,133.95,1.24_9.42_4.19_10.32_(predicted),OC(=O)[C@H](Cc1ccc(c(c1)N)O)[NH3],,160450.0,,300-34-5,,phenylalanine,non-natural,TY2,NC1CC(CC([NH3+])C(O)O)CCC1O
TYI,"3,5-diiodotyrosine",DTYI,,433.99,-0.46_(predicted),4.2,252.64,166.98,1.47_9.45_7.23_(predicted),OC(=O)[C@H](Cc1cc(I)c(c(c1)I)O)[NH3],,,7059641.0,300-39-0,16711-71-0,phenylalanine,non-natural,TYI,[NH3+]C(CC1CC(I)C(O)C(I)C1)C(O)O
TYQ,3-amino-6-hydroxy-tyrosine,DTYQ,,213.21,-2.80_(predicted),0.89_(predicted),223.61,137.95,0.99_8.98_11.56_5.2_9.62_(predicted),OC(=O)[C@H](Cc1cc(N)c(cc1O)O)[NH3],,,,,,phenylalanine,non-natural,TYQ,NC1CC(CC([NH3+])C(O)O)C(O)CC1O
TZA4,(4-thiazolyl)-alanine,D4TH,,173.21,-2.34_(predicted),0.97,185.19,99.53,0.26_9.2_1.96_(predicted),[NH3][C@H](C(=O)O)Cc1cscn1,,,,136010-41-8,131896-42-9,histidine,non-natural,TZA4,[NH3+]C(CC1CSCN1)C(O)O
UN1,2-Aminoadipic acid,DUN1,11C,162.16,-3.15_(predicted),0.79,179.36,93.69,2.01_9.53_4.29_(predicted),OC(=O)CCC[C@@H](C(=O)O)[NH3],,92136.0,,542-32-5,7620-28-2,aspartic,non-natural,UN1,[NH3+]C(CCCC(O)O)C(O)O
VAH,Hydroxynorvaline,DVAH,,133.15,-2.21_(predicted),0.25,155.79,70.13,2.34_8.99_(predicted),CC[C@H]([C@@H]([C](=O)=O)[NH3])O,,65097.0,65097.0,34042-00-7,34042-00-7,serine,non-natural,VAH,CCC(O)C([NH3+])C(O)O
WFP,"3,5-Difluoro-phenylalanine",DWFP,,202.18,-1.21_(predicted),2.49_(predicted),208.53,122.87,1.4_9.38_(predicted),[NH3][C@H](C(=O)O)Cc1cc(F)cc(c1)F,,716307.0,716310.0,31105-91-6,266360-63-8,phenylalanine,non-natural,WFP,[NH3+]C(CC1CC(F)CC(F)C1)C(O)O
YCM,cysteine-s-acetamide,DYCM,,179.22,-3.77_(predicted),-0.18_(predicted),187.98,102.32,2.08_8.83_(predicted),NC(=O)CSC[C@@H](C(=O)O)[NH3],,95482.0,95482.0,17528-66-4,17528-66-4,asparagine,non-natural,YCM,NC(O)CSCC([NH3+])C(O)O
YOF,3-fluorotyrosine,DYOF,,200.19,-1.66_(predicted),2.03_(predicted),210.5,124.83,1.57_9.48_8.37_(predicted),OC(=O)[C@H](Cc1ccc(c(c1)F)O)[NH3],,643330.0,719318.0,7423-96-3,64024-06-2,phenylalanine,non-natural,YOF,[NH3+]C(CC1CCC(O)C(F)C1)C(O)O
DAL,Alanine,,,90.1,-2.85,1.09,107.08,21.42,2.35_9.87,[NH3][C@@H](C)C(=O)O,[NH3][C@@H](C)C(=O)O,5950.0,71080.0,56-41-7,338-69-2,alanine,natural,DAL,CC([NH3+])C(O)O
DAR,Arginine,,,176.22,-4.2,-0.05_(predicted),204.07,118.41,2.01_9.04_12.48,[NH3][C@@H](CCCNC(=[NH2])N)C(=O)O,[NH3][C@@H](CCCNC(=[NH2])N)C(=O)O,6322.0,71070.0,74-79-3,157-06-2,arginine,natural,DAR,NC(N)NCCCC([NH3+])C(O)O
DSG,Aspargine,,,133.13,-3.82,-1.26,142.64,56.97,2.02_8.8,[NH3][C@@H](CC(=O)N)C(=O)O,[NH3][C@@H](CC(=O)N)C(=O)O,6267.0,439600.0,70-47-3,2058-58-4,asparagine,natural,DSG,NC(O)CC([NH3+])C(O)O
DAS,Aspartate,,,134.11,-3.68,-0.17,137.99,52.33,2.1_9.82_3.9,[NH3][C@@H](CC(=O)O)C(=O)O,[NH3][C@@H](CC(=O)O)C(=O)O,5960.0,83887.0,56-84-8,1783-96-6,aspartic,natural,DAS,[NH3+]C(CC(O)O)C(O)O
DCY,Cysteine,,,122.17,-2.5,0.51_(predicted),126.7,41.04,2.05_10.25_10.78,[NH3][C@@H](CS)C(=O)O,[NH3][C@@H](CS)C(=O)O,5862.0,92851.0,52-90-4,921-01-7,cysteine,natural,DCY,[NH3+]C(CS)C(O)O
DGN,Glutamine,,,147.15,-3.15,-0.66,163.84,78.17,2.17_9.13,[NH3][C@@H](CCC(=O)N)C(=O)O,[NH3][C@@H](CCC(=O)N)C(=O)O,5961.0,145815.0,56-85-9,5959-95-5,asparagine,natural,DGN,NC(O)CCC([NH3+])C(O)O
DGL,Glutamate,,,148.14,-3.66,0.33,160.14,74.48,2.1_9.47_4.07,[NH3][C@@H](CCC(=O)O)C(=O)O,[NH3][C@@H](CCC(=O)O)C(=O)O,33032.0,23327.0,56-86-0,6893-26-1,aspartic,natural,DGL,[NH3+]C(CCC(O)O)C(O)O
DHI,Histidine,,,156.16,-2.52,0.23,168.04,82.38,1.77_9.18_6.1,[NH3][C@@H](Cc1c[nH]cn1)C(=O)O,[NH3][C@@H](Cc1c[nH]cn1)C(=O)O,6274.0,71083.0,71-00-1,351-50-8,histidine,natural,DHI,[NH3+]C(CC1CNCN1)C(O)O
DIL,Isoleucine,,,132.18,-1.76,2.89,171.4,85.73,2.23_9.76,[NH3][C@@H]([C@H](CC)C)C(=O)O,[NH3][C@@H]([C@H](CC)C)C(=O)O,6306.0,76551.0,73-32-5,319-78-8,alanine,natural,DIL,CCC(C)C([NH3+])C(O)O
DLE,Leucine,,,132.18,-1.74,2.76,171.89,86.22,2.33_9.74,[NH3][C@@H](CC(C)C)C(=O)O,[NH3][C@@H](CC(C)C)C(=O)O,6106.0,439524.0,61-90-5,328-38-1,alanine,natural,DLE,CC(C)CC([NH3+])C(O)O
DLY,Lysine,,,148.2,-3.05,0.86,185.41,99.75,2.18_8.95_10.53,[NH3][C@@H](CCCC[NH3])C(=O)O,[NH3][C@@H](CCCC[NH3])C(=O)O,5962.0,57449.0,56-87-1,923-27-3,lysine,natural,DLY,[NH3+]CCCCC([NH3+])C(O)O
MED,Methionine,,,150.22,-2,1.54,175.07,89.4,2.28_9.21,[NH3][C@@H](CCSC)C(=O)O,[NH3][C@@H](CCSC)C(=O)O,6137.0,84815.0,63-68-3,348-67-4,methionine,natural,MED,CSCCC([NH3+])C(O)O
DPN,Phenylalanine,,,166.2,-1.52,2.73,199.86,114.2,2.58_9.24,[NH3][C@@H](Cc1ccccc1)C(=O)O,[NH3][C@@H](Cc1ccccc1)C(=O)O,6140.0,71567.0,63-91-2,673-06-3,phenylalanine,natural,DPN,[NH3+]C(CC1CCCCC1)C(O)O
DPR,Proline,,,116.14,-2.54,2.36,143.4,57.74,2_10.6,[NH2]1[C@H](C(=O)O)CCC1,[NH2]1[C@H](C(=O)O)CCC1,145742.0,8988.0,147-85-3,344-25-2,other,natural,DPR,OC(O)C1CCCN1
DSN,Serine,,,106.1,-3.33,-0.74,117.37,31.71,2.21_9.15,[NH3][C@@H](CO)C(=O)O,[NH3][C@@H](CO)C(=O)O,5951.0,71077.0,56-45-1,312-84-5,serine,natural,DSN,[NH3+]C(CO)C(O)O
DTH,Threonine,,,120.13,-2.98,-0.3,137.26,51.59,2.09_9.1,[NH3][C@@H]([C@@H](C)O)C(=O)O,[NH3][C@@H]([C@@H](C)O)C(=O)O,6288.0,69435.0,72-19-5,632-20-2,serine,natural,DTH,CC(O)C([NH3+])C(O)O
DTR,Tryptophan,,,205.23,-1.06,2.6,233.78,148.12,2.38_9.39,[NH3][C@@H](Cc1c[nH]c2c1cccc2)C(=O)O,[NH3][C@@H](Cc1c[nH]c2c1cccc2)C(=O)O,6305.0,9060.0,73-22-3,153-94-6,tryptophan,natural,DTR,[NH3+]C(CC1CNC2CCCCC12)C(O)O
DTY,Tyrosine,,,182.2,-2.26,1.97,208.29,122.63,2.2_9.11_10.07,[NH3][C@@H](Cc1ccc(cc1)O)C(=O)O,[NH3][C@@H](Cc1ccc(cc1)O)C(=O)O,6057.0,71098.0,60-18-4,556-02-5,phenylalanine,natural,DTY,[NH3+]C(CC1CCC(O)CC1)C(O)O
DVA,Valine,,,118.15,-2.26,2.36,149.25,63.59,2.29_9.27,[NH3][C@@H](C(C)C)C(=O)O,[NH3][C@@H](C(C)C)C(=O)O,6287.0,71563.0,72-18-4,640-68-6,alanine,natural,DVA,CC(C)C([NH3+])C(O)O
D004,Phenylglycine,,,152.17,-1.7,2.13,174.8,89.14,2.23_8.85_(predicted),[NH3][C@@H](c1ccccc1)C(=O)O,[NH3][C@@H](c1ccccc1)C(=O)O,99291.0,70134.0,2935-35-5,875-74-1,phenylglycine,non-natural,D004,[NH3+]C(C([O-])O)C1CCCCC1
D0A1,4-methoxy-Phenylalanine,,,196.22,-1.44_(predicted),2.81,229.12,143.45,2.23_9.44_(predicted),COc1ccc(cc1)C[C@@H](C(=O)O)[NH3],,2723935.0,6950205.0,6230-11-1,39878-65-4,phenylalanine,non-natural,D0A1,COC1CCC(CC([NH3+])C(O)O)CC1
D0AF,7-hydroxy-l-tryptophan,,,220.22,-0.75_(predicted),2.06_(predicted),238.99,153.33,2.23_9.2_9.67_(predicted),[NH3][C@H]([C](=O)=O)Cc1c[nH]c2c1cccc2O,,439280.0,199528.0,314062-44-7,4350-07-6,tryptophan,non-natural,D0AF,[NH3+]C(CC1CNC2C(O)CCCC12)C(O)O
D0BN,4-carbamimidoyl-l-phenylalanine,,,209.25,-2.44_(predicted),1.25_(predicted),235.28,149.62,2.15_9.43_11.5_(predicted),[NH3][C@H](C(=O)O)Cc1ccc(cc1)[C](=[NH2])=[NH2],,3040681.0,,52820-75-4,,phenylalanine,non-natural,D0BN,NC(N)C1CCC(CC([NH3+])C(O)O)CC1
D200,4-chloro-Phenylalanine,,,199.63,-0.48,3.33,213.84,128.17,1.85_9.44_(predicted),[NH3][C@H]([C](=O)=O)Cc1ccc(cc1)Cl,,736190.0,667429.0,14173-39-8,14091-08-8,phenylalanine,non-natural,D200,[NH3+]C(CC1CCC(Cl)CC1)C([O-])O
D26P,2-amino-6-oxopimelic acid,,,189.17,-1.20_(predicted),1.38_(predicted),205.31,119.65,1.77_9.33_3.08_(predicted),OC(=O)[C@H](CCC[C](=[C](=O)=O)=O)[NH3],,194695.0,,75650-93-0,,aspartic,non-natural,D26P,[NH3+]C(CCCC(O)C(O)O)C(O)O
D2AG,2-Allyl-glycine,,,116.14,-2.26_(predicted),1.77,141.88,56.22,2.3_9.6,[NH3][C@H](C(=O)O)CC=C,,167529.0,6992334.0,16338-48-0,54594-06-8,alanine,non-natural,D2AG,CCCC([NH3+])C(O)O
D2AS,3-methyl-aspartic acid,,,147.13,-2.41_(predicted),0.33,155.96,70.29,1.87_9.68_3.55_(predicted),OC(=O)[C@H]([C@@H]([C](=O)=O)C)[NH3],,852.0,852.0,6667-60-3,6667-60-3,aspartic,non-natural,D2AS,CC(C(O)O)C([NH3+])C(O)O
D2FM,s-(difluoromethyl)-homocysteine,,,186.2,-1.41_(predicted),2.19_(predicted),188.28,102.61,1.95_9.5_(predicted),FC(SCC[C@@H](C(=O)O)[NH3])F,,,,,,methionine,non-natural,D2FM,[NH3+]C(CCSC(F)F)C(O)O
D2HF,2-fluoro-l-histidine,,,175.16,-2.62_(predicted),1.23_(predicted),170.57,84.91,0.79_9.32_1.74_8.75_(predicted),[NH3][C@H](C(=O)O)C[C@@H]1CN[C@@H](N1)F,,6613474.0,,50444-78-5,,histidine,non-natural,D2HF,[NH3+]C(CC1CNC(F)N1)C(O)O
D2H1,2-fluoro-l-histidine,,,174.15,-2.80_(predicted),0.90_(predicted),179.01,93.35,0.8_9.49_8.67_2.14_(predicted),[NH3][C@H](C(=O)O)Cc1cnc([nH]1)F,,6613474.0,,50444-78-5,,histidine,non-natural,D2H1,[NH3+]C(CC1CNC(F)N1)C(O)O
D2H2,2-fluoro-l-histidine,,,174.15,-2.80_(predicted),0.90_(predicted),179.0,93.34,0.79_9.32_1.74_8.75_(predicted),[NH3][C@H](C(=O)O)Cc1c[nH]c(n1)F,,6613474.0,,50444-78-5,,histidine,non-natural,D2H2,[NH3+]C(CC1CNC(F)N1)C(O)O
D2NP,l-2-amino-6-methylene-pimelic acid,,,187.19,-0.68_(predicted),3.28_(predicted),218.01,132.34,2.16_9.53_4.53_(predicted),OC(=O)[C@H](CCC[C](=[C](=O)=O)=C)[NH3],,,,,,aspartic,non-natural,D2NP,CC(CCCC([NH3+])C(O)O)C(O)O
D32T,"3-(4H-thieno[3,2-b]pyrrol-6-yl)-L-alanine",,,210.25,-0.63_(predicted),2.18_(predicted),220.9,135.24,2.74_9.37_(predicted),O=[C](=O)[C@H](Cc1c[nH]c2c1scc2)[NH3],,,,,,tryptophan,non-natural,D32T,[NH3+]C(CC1CNC2CCSC12)C([O-])O
D3CF,3-cyano-phenylalanine,,,191.21,-1.69_(predicted),2.01_(predicted),218.68,133.02,1.52_0.42_(predicted),N#Cc1cccc(c1)C[C@@H](C(=O)O)[NH3],,2734509.0,7009411.0,57213-48-6,263396-43-6,phenylalanine,non-natural,D3CF,NCC1CCCC(CC([NH3+])C([O-])O)C1
D3FG,"(2s)-amino(3,5-dihydroxyphenyl)-ethanoic acid",,,184.17,-2.41_(predicted),0.8,191.73,106.07,1.37_8.01_8.78_10.82_(predicted),OC(=O)[C@H](c1cc(O)cc(c1)O)[NH3],,443586.0,,162870-29-3,,phenylglycine,non-natural,D3FG,[NH3+]C(C([O-])O)C1CC(O)CC(O)C1
D3GL,4-hydroxy-glutamic-acid,,,163.13,-3.18_(predicted),-0.72,167.87,82.21,1.68_9.16_3.5-(COO-)_(predicted),OC(=O)[C@H](C[C@@H]([C](=O)=O)O)[NH3],,,,56614-13-2,,aspartic,non-natural,D3GL,[NH3+]C(CC(O)C(O)O)C([O-])O
D3MY,3-Chloro-tyrosine,,,216.64,-1.14_(predicted),2.56_(predicted),224.29,138.63,1.56_9.47_7.84_(predicted),OC(=O)[C@H](Cc1ccc(c(c1)Cl)O)[NH3],,110992.0,,7423-93-0,35608-63-0,phenylalanine,non-natural,D3MY,[NH3+]C(CC1CCC(O)C(Cl)C1)C([O-])O
D4BF,4-Bromo-phenylalanine,,,245.09,-0.72_(predicted),3.42,225.92,140.26,1.81_9.44_(predicted),[NH3][C@H](C(=O)O)Cc1ccc(cc1)Br,,671214.0,671215.0,24250-84-8,62561-74-4,phenylalanine,non-natural,D4BF,[NH3+]C(CC1CCC(Br)CC1)C(O)O
D4CF,4-cyano-phenylalanine,,,191.21,-1.69_(predicted),2.01_(predicted),218.69,133.03,1.52_9.42_(predicted),[NH3][C@H](C(=O)O)Cc1ccc(cc1)C#N,,,,104531-20-6,167479-78-9,phenylalanine,non-natural,D4CF,NCC1CCC(CC([NH3+])C([O-])O)CC1
D4CY,nitrilo-l-methionine,,,161.2,-2.31_(predicted),1.29_(predicted),174.3,88.64,1.34_9.5_(predicted),N#CSCC[C@@H](C(=O)O)[NH3],,,,,,methionine,non-natural,D4CY,NCSCCC([NH3+])C([O-])O
D4FW,4-fluoro-tryptophan,,,223.22,-1.07,2.51_(predicted),236.48,150.82,2.18_9.36_(predicted),OC(=O)[C@H](Cc1c[nH]c2c1c(F)ccc2)[NH3],,,,25631-17-8,110221-04-0,tryptophan,non-natural,D4FW,[NH3+]C(CC1CNC2CCCC(F)C12)C([O-])O
D4HZ,4-hydroxymethyl-phenylalanine,,,196.22,-2.29_(predicted),1.58,229.11,143.45,2.23_9.44_(predicted),OCc1ccc(cc1)C[C@@H](C(=O)O)[NH3],,193505.0,,15742-88-8,15720-17-9,phenylalanine,non-natural,D4HZ,[NH3+]C(CC1CCC(CO)CC1)C([O-])O
D4HT,4-hydroxy-tryptophan,,,220.22,-0.75_(predicted),2.06_(predicted),239.24,153.57,2.2_9.61_9.34_(predicted),O=[C](=O)[C@H](Cc1c[nH]c2c1c(O)ccc2)[NH3],,,,25242-90-4,,tryptophan,non-natural,D4HT,[NH3+]C(CC1CNC2CCCC(O)C12)C([O-])O
D4IN,4-amino-l-tryptophan,,,220.25,-1.96_(predicted),1.73_(predicted),240.13,154.47,1.84_9.4_3.24_(predicted),OC(=O)[C@H](Cc1c[nH]c2c1c(N)ccc2)[NH3],,,,540770-50-1,,tryptophan,non-natural,D4IN,NC1CCCC2NCC(CC([NH3+])C([O-])O)C12
D4PH,4-methyl-phenylalanine,,,180.22,-1.04_(predicted),3.15,219.58,133.92,2.58_9.47_(predicted),[NH3][C@H](C(=O)O)Cc1ccc(cc1)C,,151513.0,7015862.0,1991-87-3,49759-61-7,phenylalanine,non-natural,D4PH,CC1CCC(CC([NH3+])C(O)O)CC1
D6CL,6-carboxylysine,,,191.21,-5.00_(predicted),-1.86,215.67,130.0,1.85_9.83_9.65_2.42_(predicted),[NH3][C@H](C(=O)O)CCC[C@H]([C](=O)=O)[NH3],,,,,,aspartic,non-natural,D6CL,[NH3+]C(CCCC([NH3+])C(O)O)C([O-])O