L-Code,Name,D-Code,D-code-PDB,Molecular_weight,LogP,Sidechain_logP,Volume,Sidechain_volume,pKa,SMILES,Fixed SMILES,Pubchem#,D-Pubchem#,CAS,D-CAS,family,natural,file,Mol2SMILES
DAH,"3,4-Dihydroxy-phenylalanine",DDAH,,198.2,-2.74,1.37,214.52,128.86,1.65_9.06_9.69_12.74_(predicted),OC(=O)[C@H](Cc1ccc(c(c1)O)O)[NH3],,6047.0,92222.0,59-92-7,5796-17-8,phenylalanine,non-natural,DAH,[NH3+]C(CC1CCC(O)C(O)C1)C(O)O
DBY,"3,5-dibromotyrosine",DDBY,,339.99,-0.38_(predicted),3.31_(predicted),259.58,173.92,1.35_9.44_6.75_(predicted),OC(=O)[C@H](Cc1cc(Br)c(c(c1)Br)O)[NH3],,67532.0,,300-38-9,50299-42-8,phenylalanine,non-natural,DBY,[NH3+]C(CC1CC(Br)C(O)C(Br)C1)C(O)O
DDZ,"3,3-dihydroxy-alanine",DDDZ,,122.1,-4.57_(predicted),-1.05_(predicted),124.84,39.18,1.72_8.36_11.91_13.78_(predicted),OC([C@@H](C(=O)O)[NH3])O,,,,,,serine,non-natural,DDZ,[NH3+]C(C(O)O)C(O)O
DILE,Diethylalanine,D2EL,,146.21,-1.32_(predicted),3.39,185.21,99.55,2.85_9.58_(predicted),CCC([C@@H](C(=O)O)[NH3])CC,,,,14328-53-1,14328-53-1,alanine,non-natural,DILE,CCC(CC)C([NH3+])C(O)O
DIPH,"3,3-diphenylalanine",D2F1,,242.29,0.04_(predicted),4.14,285.51,199.85,2.44_9.41_(predicted),[NH3][C@@H]([C@H](c1ccccc1)c1ccccc1)C(=O)O,[NH3][C@@H]([C@H](c1ccccc1)c1ccccc1)C(=O)O,,,149597-92-2,149597-91-1,phenylalanine,non-natural,DIPH,[NH3+]C(C(O)O)C(C1CCCCC1)C1CCCCC1
DMK,"3,3-dimethyl aspartic acid",DDMK,,160.15,-1.17_(predicted),0.94,176.26,90.6,2.01_9.74_4.3_(predicted),O=[C](=O)[C@H](C([C](=O)=O)(C)C)[NH3],,,,,,aspartic,non-natural,DMK,CC(C)(C(O)O)C([NH3+])C(O)O
DMP3,3-ethyl-phenylalanine,DDF4,,194.25,-0.61_(predicted),3.98,242.19,156.52,2.62_9.45_(predicted),CCc1cccc(c1)C[C@@H](C(=O)O)[NH3],,,,,,phenylalanine,non-natural,DMP3,CCC1CCCC(CC([NH3+])C(O)O)C1
DPP,"2,3-Diaminopropanoic acid",DDPP,2RA,105.12,-3.42_(predicted),-0.57,116.32,30.66,2.1_6.59_8.09_(predicted),[NH3]C[C@@H]([C](=O)=O)[NH3],,97328.0,,4033-39-0,1915-96-4,lysine,non-natural,DPP,[NH3+]CC([NH3+])C(O)O
ESC,Ethionine,DESC,,164.25,-1.99_(predicted),1.95,196.56,110.9,2.61_9.5_(predicted),CCSCC[C@@H](C(=O)O)[NH3],,25674.0,92124.0,13073-35-3,535-32-0,methionine,non-natural,ESC,CCSCCC([NH3+])C(O)O
F2F,"3,4-Difluoro-phenylalanine",DF2F,,202.18,-1.21_(predicted),2.49_(predicted),208.48,122.82,1.4_9.42_(predicted),OC(=O)[C@H](Cc1ccc(c(c1)F)F)[NH3],,716295.0,,31105-90-5,249648-08-6,phenylalanine,non-natural,F2F,[NH3+]C(CC1CCC(F)C(F)C1)C(O)O
FCL,3-chloro-Phenylalanine,DFCL,,200.64,-0.78_(predicted),3.28,213.76,128.1,1.85_9.42_(predicted),OC(=O)[C@H](Cc1cccc(c1)Cl)[NH3],,2761492.0,7009409.0,80126-51-8,80126-52-9,phenylalanine,non-natural,FCL,[NH3+]C(CC1CCCC(Cl)C1)C(O)O
FGA4,4-Fluoro-glutamic acid,D4FG,,166.13,-3.03_(predicted),1.45_(predicted),162.47,76.81,1.78_9.45_3.64_(predicted),OC(=O)[C@H](C[C@@H](C(=O)O)F)[NH3],,,,91383-47-0,149117-03-3,aspartic,non-natural,FGA4,[NH3+]C(CC(F)C(O)O)C(O)O
FGL,2-amino-propanedioic acid,DFGL,,118.07,-1.84_(predicted),-0.54,114.97,29.3,0.45_8.5_3.01_(predicted),[NH3]C([C](=O)=O)[C](=O)=O,,,,1068-84-4,,aspartic,non-natural,FGL,[NH3+]C(C(O)O)C(O)O
FLA,Trifluoro-alanine,DFLA,TDD,144.07,-2.25_(predicted),0.64,119.94,34.28,1.02_4.73_(predicted),[NH3][C@@H](C(F)(F)F)C(=O)O,[NH3][C@@H](C(F)(F)F)C(=O)O,,,,,alanine,non-natural,FLA,[NH3+]C(C(O)O)C(F)(F)F
FPG2,2-Fluoro-phenylglycine,DFP6,,170.16,-1.60_(predicted),2.27,182.98,97.31,1.58_8.96_(predicted),OC(=O)[C@H](c1ccccc1F)[NH3],,,,,,phenylglycine,non-natural,FPG2,[NH3+]C(C(O)O)C1CCCCC1F
FPG3,3-Fluoro-phenylglycine,DFP7,,170.16,-1.60_(predicted),2.27,183.32,97.66,1.57_8.96_(predicted),OC(=O)[C@H](c1cccc(c1)F)[NH3],,,,,,phenylglycine,non-natural,FPG3,[NH3+]C(C(O)O)C1CCCC(F)C1
FPG4,4-Fluoro-phenylglycine,DFP8,,170.16,-1.60_(predicted),2.27,180.04,94.38,1.57_8.96_(predicted),[NH3][C@@H](c1ccc(cc1)F)C(=O)O,[NH3][C@@H](c1ccc(cc1)F)C(=O)O,853015.0,124515.0,19883-57-9,93939-74-3,phenylglycine,non-natural,FPG4,[NH3+]C(C(O)O)C1CCC(F)CC1
FPH2,2-Fluoro-Phenylalanine,DFF2,,184.19,-1.31_(predicted),2.39_(predicted),202.75,117.09,1.86_9.33_(predicted),OC(=O)[C@H](Cc1ccccc1F)[NH3],,716319.0,716322.0,19883-78-4,122839-51-4,phenylalanine,non-natural,FPH2,[NH3+]C(CC1CCCCC1F)C(O)O
FPH3,3-Fluoro-Phenylalanine,DFF3,,184.19,-1.31_(predicted),2.75,203.08,117.42,1.86_9.41_(predicted),OC(=O)[C@H](Cc1cccc(c1)F)[NH3],,716315.0,,19883-77-3,2629-54-1,phenylalanine,non-natural,FPH3,[NH3+]C(CC1CCCC(F)C1)C(O)O
FT6,6-fluoro-l-tryptophan,DFT6,,223.22,-0.78,2.51_(predicted),236.8,151.14,2.13_9.4_(predicted),OC(=O)[C@H](Cc1c[nH]c2c1ccc(c2)F)[NH3],,,,19310-00-0,108391-82-8,tryptophan,non-natural,FT6,[NH3+]C(CC1CNC2CC(F)CCC12)C(O)O
FTR,5-Fluoro-tryptophan,DFTR,,223.22,-0.71,2.51_(predicted),239.19,153.53,2.12_9.4_(predicted),[NH3][C@H](C(=O)O)Cc1c[nH]c2c1cc(F)cc2,,,,97749-24-1,16626-02-1,tryptophan,non-natural,FTR,[NH3+]C(CC1CNC2CCC(F)CC12)C(O)O
FUA2,(2-furyl)-alanine,DFUO,,156.16,-2.31_(predicted),1.85,177.78,92.12,1.34_9.18_(predicted),OC(=O)[C@H](Cc1ccco1)[NH3],,2761503.0,,127682-08-0,110772-46-8,histidine,non-natural,FUA2,[NH3+]C(CC1CCCO1)C(O)O
FVAL,3-Fluoro-valine,DFVL,,136.15,-2.40_(predicted),1.37_(predicted),152.86,67.2,2.35_8.43_(predicted),[NH3][C@@H](C(F)(C)C)C(=O)O,[NH3][C@@H](C(F)(C)C)C(=O)O,,,,,alanine,non-natural,FVAL,CC(C)(F)C([NH3+])C(O)O
GBUT,2-Amino-4-guanidinobutryric acid,DGBT,,161.18,-0.66_(predicted),-0.58_(predicted),183.35,97.69,2.31_9.7_12.32_(predicted),O=[C](=O)[C@H](CC[NH]=[C](=[NH2])=[NH2])[NH3],,,,,,arginine,non-natural,GBUT,NC(N)NCCC([NH3+])C(O)O
GDPR,2-Amino-3-guanidinopropionic acid,DGPA,,147.16,-1.02_(predicted),-0.94_(predicted),159.06,73.39,2.06_6.75_12.24_(predicted),[NH3][C@H]([C](=O)=O)C[NH]=[C](=[NH2])=[NH2],,,,,,arginine,non-natural,GDPR,NC(N)NCC([NH3+])C(O)O
GGB,Canavanine,DGGB,,176.17,-3.20_(predicted),-0.48_(predicted),192.41,106.75,2.1_9.16_6.64-(N)_(predicted),[NH3][C@H]([C](=O)=O)CCON=C(N)N,,439202.0,,543-38-4,,arginine,non-natural,GGB,NC(N)NOCCC([NH3+])C(O)O
GHG,"(2s,4s)-2,5-diamino-4-hydroxy-5-oxopentanoic acid",DGHG,,162.14,-3.83_(predicted),-1.11_(predicted),171.1,85.44,1.93_8.94_(predicted),NC(=O)[C@H](C[C@@H]([C](=O)=O)[NH3])O,,,,,,asparagine,non-natural,GHG,NC(O)C(O)CC([NH3+])C(O)O
GME,5-o-methyl-glutamic acid,DGME,,162.16,-3.18_(predicted),0.82,185.52,99.86,2.02_9.51_(predicted),COC(=O)CC[C@@H](C(=O)O)[NH3],,68662.0,111219.0,1499-55-4,6461-04-7,aspartic,non-natural,GME,COC(O)CCC([NH3+])C(O)O
HCS,homocysteine,DHCS,,136.19,-2.72_(predicted),0.88_(predicted),147.98,62.32,2.46_9.41_10.18_(predicted),[NH3][C@H](C(=O)O)CCS,,91552.0,,6027-13-0,,cysteine,non-natural,HCS,[NH3+]C(CCS)C(O)O
HGA,glutamine hydroxamate,DHGA,SD3,163.15,-4.25_(predicted),-0.48_(predicted),174.39,88.72,1.93_9.46_8.91-(OH)_(predicted),ONC(=O)CC[C@@H](C(=O)O)[NH3],,,,,,asparagine,non-natural,HGA,[NH3+]C(CCC(O)NO)C(O)O
HHK,"(2s)-2,8-diaminooctanoic acid",DHHK,,176.26,-2.34_(predicted),2.06,230.11,144.45,2.84_9.44_10.29_(predicted),[NH3]CCCCCC[C@@H](C(=O)O)[NH3],,,,,,lysine,non-natural,HHK,[NH3+]CCCCCCC([NH3+])C(O)O
HIL4,4-Hydroxy-L-isoleucine,DHIL,,148.18,-2.82_(predicted),0.65,175.95,90.28,2.46_9.22_(predicted),C[C@H]([C@@H]([C@@H](C(=O)O)[NH3])C)O,,2773624.0,,781658-23-9,,serine,non-natural,HIL4,CC(O)C(C)C([NH3+])C(O)O
HL2,"(2s,3r)-2-amino-3-hydroxy-4-methylpentanoic acid",DHL2,,148.18,-2.65_(predicted),0.76,175.73,90.07,2.44_8.99_(predicted),CC([C@H]([C@@H](C(=O)O)[NH3])O)C,,,,,,serine,non-natural,HL2,CC(C)C(O)C([NH3+])C(O)O
HLEU,Homoleucine,DHL1,,145.2,-0.44_(predicted),2.64_(predicted),191.57,105.91,2.85_9.53_(predicted),[NH3][C@H]([C](=O)=O)CCC(C)C,,,,,,alanine,non-natural,HLEU,CC(C)CCC([NH3+])C(O)O
HLU,beta-hydroxyleucine,DHLU,,147.17,-1.77_(predicted),0.76,178.34,92.68,2.44_8.99_(predicted),CC([C@@H]([C@@H]([C](=O)=O)[NH3])O)C,,134611.0,,5817-22-1,,serine,non-natural,HLU,CC(C)C(O)C([NH3+])C(O)O
HOX,4-amino-L-phenylalanine,DHOX,,181.21,-2.2,1.39,208.82,123.15,1.54_9.52_4.24_(predicted),[NH3][C@H](C(=O)O)Cc1ccc(cc1)N,,151001.0,,943-80-6,102281-45-8,phenylalanine,non-natural,HOX,NC1CCC(CC([NH3+])C(O)O)CC1
HPE,Homophenylalanine,DHPE,,180.22,-1.2,3.15,218.78,133.11,2.55_9.52_(predicted),[NH3][C@H](C(=O)O)CCc1ccccc1,,2724505.0,,943-73-7,82795-51-5,phenylalanine,non-natural,HPE,[NH3+]C(CCC1CCCCC1)C(O)O
HQA,3-(8-hydroxyquinolin-3-yl)-l-alanine,DHQA,,233.24,-1.50_(predicted),2.20_(predicted),255.25,169.59,1.48_9.66_2.66_9.4_(predicted),OC(=O)[C@H](Cc1cnc2c(c1)cccc2O)[NH3],,,,,,phenylalanine,non-natural,HQA,[NH3+]C(CC1CNC2C(O)CCCC2C1)C(O)O
HRG,homoarginine,DHRG,,190.24,-3.9,0.31_(predicted),225.15,139.49,2.49_9.45_12.23_(predicted),[NH2]=[C](=[NH]CCCC[C@@H](C(=O)O)[NH3])=[NH2],,,,156-86-5,110798-13-5,arginine,non-natural,HRG,NC(N)NCCCCC([NH3+])C(O)O
HRP,5-Hydroxy-tryptophan,DHRP,,221.23,-1.64_(predicted),2.06_(predicted),242.85,157.19,2.15_9.18_9.63_(predicted),OC(=O)[C@H](Cc1c[nH]c2c1cc(O)cc2)[NH3],,439280.0,,4350-09-8,,tryptophan,non-natural,HRP,[NH3+]C(CC1CNC2CCC(O)CC12)C(O)O
HSER,homoserine,DHSE,,120.13,-3.69_(predicted),-0.3,137.74,52.08,2.23_9.16_(predicted),OCC[C@@H](C(=O)O)[NH3],,12647.0,2724170.0,672-15-1,6027-21-0,serine,non-natural,HSER,[NH3+]C(CCO)C(O)O
HTR,beta-hydroxy-tryptophane,DHTR,,221.23,-2.39_(predicted),1.16_(predicted),238.5,152.84,2.3_8.83_(predicted),OC(=O)[C@H]([C@H](c1c[nH]c2c1cccc2)O)[NH3],,,,,,tryptophan,non-natural,HTR,[NH3+]C(C(O)O)C(O)C1CNC2CCCCC21
HVA,3-hydroxy-l-valine,DHVA,DHV,133.15,-2.55_(predicted),0.05,152.99,67.33,2.34_9.08_(predicted),[NH3][C@@H](C(O)(C)C)[C](=O)=O,,192763.0,,2280-27-5,2280-28-6,serine,non-natural,HVA,CC(C)(O)C([NH3+])C(O)O
I2M,3-methyl-l-alloisoleucine,DI2M,,146.21,-1.28_(predicted),2.64_(predicted),184.17,98.51,2.85_9.31_(predicted),CCC([C@@H](C(=O)O)[NH3])(C)C,,,,,,alanine,non-natural,I2M,CCC(C)(C)C([NH3+])C(O)O
IGL,alpha-amino-2-indanacetic acid,DIGL,,191.23,-0.23_(predicted),3.33,226.06,140.4,2.4_9.56_(predicted),[NH3][C@H]([C](=O)=O)[C@@H]1Cc2c(C1)cccc2,,,,,,alanine,non-natural,IGL,[NH3+]C(C(O)O)C1CC2CCCCC2C1
IIL,Allo-Isoleucine,DIIL,,132.18,-1.76,2.89,171.18,85.52,2.79_9.59_(predicted),CC[C@H]([C@@H](C(=O)O)[NH3])C,,,94206.0,1509-34-8,1509-35-9,alanine,non-natural,IIL,CCC(C)C([NH3+])C(O)O
ILX,"4,5-dihydroxy-isoleucine",DILX,,163.17,-2.99_(predicted),-0.18_(predicted),187.58,101.92,2.2_8.9_(predicted),OC[C@@H]([C@@H]([C@@H]([C](=O)=O)[NH3])C)O,,,,,,serine,non-natural,ILX,CC(C(O)CO)C([NH3+])C(O)O
IYR,3-iodo-tyrosine,DIYR,,308.09,-1.11_(predicted),2.58_(predicted),228.89,143.23,1.54_9.5_8.16_(predicted),OC(=O)[C@H](Cc1ccc(c(c1)I)O)[NH3],,439744.0,,70-78-0,,phenylalanine,non-natural,IYR,[NH3+]C(CC1CCC(O)C(I)C1)C(O)O
KYN,kynurenine,DKYN,,209.22,-2.18_(predicted),1.63,229.38,143.72,1.19_8.96_2.43_(predicted),OC(=O)[C@H](CC(=O)c1ccccc1N)[NH3],,161166.0,1152206.0,2922-83-0,13441-51-5,phenylalanine,non-natural,KYN,NC1CCCCC1C(O)CC([NH3+])C(O)O
LDO,6-hydroxy-l-norleucine,DLDO,DDO,148.18,-2.98_(predicted),0.84,182.18,96.52,2.46_9.53_(predicted),OCCCC[C@@H](C(=O)O)[NH3],,97725.0,,6033-32-5,,serine,non-natural,LDO,[NH3+]C(CCCCO)C(O)O
LE1,Penicillamine,DLE1,LEI,150.22,-1.78,1.31_(predicted),162.89,77.23,2.56_9.09_9.85_(predicted),[NH3][C@@H](C(S)(C)C)C(=O)O,[NH3][C@@H](C(S)(C)C)C(=O)O,,5852.0,1113-41-3,52-67-5,cysteine,non-natural,LE1,CC(C)(S)C([NH3+])C(O)O
LED,(4r)-5-oxo-l-leucine,DLED,,146.16,-3.00_(predicted),0.77_(predicted),173.37,87.71,2.25_9.51_(predicted),O=C[C@@H](C[C@@H](C(=O)O)[NH3])C,,,,,,other,non-natural,LED,CC(CO)CC([NH3+])C(O)O
LEF,(4s)-5-fluoro-l-leucine,DLEF,,150.17,-1.87_(predicted),1.90_(predicted),175.89,90.23,2.52_9.52_(predicted),FC[C@H](C[C@@H](C(=O)O)[NH3])C,,,,,,alanine,non-natural,LEF,CC(CF)CC([NH3+])C(O)O
LME,(3r)-3-methyl-l-glutamic acid,DLME,,161.16,-2.19_(predicted),0.79,176.87,91.21,2.02_9.6_4.24_(predicted),O=[C](=O)C[C@H]([C@@H](C(=O)O)[NH3])C,,,,,,aspartic,non-natural,LME,CC(CC(O)O)C([NH3+])C(O)O
LMQ,3-methyl-l-glutamine,DLMQ,,161.18,-3.72_(predicted),-0.21,180.35,94.68,2.26_9.38_(predicted),NC(=O)C[C@@H]([C@@H](C(=O)O)[NH3])C,,,,,,asparagine,non-natural,LMQ,CC(CC(N)O)C([NH3+])C(O)O
LVG,vinylglycine,DLVG,,101.1,-1.67_(predicted),1.13,121.26,35.6,2.42_8.95_(predicted),C=C[C@@H]([C](=O)=O)[NH3],,156126.0,,70982-53-5,,alanine,non-natural,LVG,CCC([NH3+])C(O)O
LVN,4-oxo-l-valine,DLVN,,131.13,-2.48_(predicted),0.59,150.07,64.41,2.12_9.05_(predicted),O=C[C@H]([C@@H]([C](=O)=O)[NH3])C,,,,,,other,non-natural,LVN,CC(CO)C([NH3+])C(O)O
M2S,"3,3-dimethyl-methionine sulfoxide",DM2S,,194.27,-3.08_(predicted),1.73_(predicted),217.36,131.7,2_9.3_(predicted),C[S@@](=O)CC([C@@H](C(=O)O)[NH3])(C)C,,,,,,other,non-natural,M2S,C[SH](O)CC(C)(C)C([NH3+])C(O)O
ME0,hydroxy-l-methionine,DME0,,166.22,-2.95_(predicted),0.66_(predicted),184.55,98.89,2.23_9.5_(predicted),OCSCC[C@@H](C(=O)O)[NH3],,,,,,methionine,non-natural,ME0,[NH3+]C(CCSCO)C(O)O
MEG,(3s)-3-methyl-l-glutamic acid,DMEG,,161.16,-2.19_(predicted),0.79,176.72,91.06,2.02_9.6_4.25_(predicted),O=[C](=O)C[C@@H]([C@@H](C(=O)O)[NH3])C,,,,,,aspartic,non-natural,MEG,CC(CC(O)O)C([NH3+])C(O)O
MEN,n-methyl-asparagine,DMEN,MND,147.15,-4.12_(predicted),-1.05,164.52,78.86,2.14_8.43_(predicted),CNC(=O)C[C@@H](C(=O)O)[NH3],,100393.0,,7175-34-0,86070-35-1,asparagine,non-natural,MEN,CNC(O)CC([NH3+])C(O)O
MEQ,n5-methyl-glutamine,DMEQ,,161.18,-3.76_(predicted),0.01_(predicted),188.27,102.61,2.23_9.31_(predicted),CNC(=O)CC[C@@H](C(=O)O)[NH3],,,,,,asparagine,non-natural,MEQ,CNC(O)CCC([NH3+])C(O)O
MHO,s-oxymethionine,DMHO,,166.22,-3.91_(predicted),0.77_(predicted),183.35,97.68,1.74_9.51_(predicted),C[S@@](=O)CC[C@@H](C(=O)O)[NH3],,158980.0,,3226-65-1,,methionine,non-natural,MHO,C[SH](O)CCC([NH3+])C(O)O
MOT5,5-Methoxy-tryptophan,D5XW,,235.26,-1.31_(predicted),2.38_(predicted),267.48,181.82,2.22_9.42_(predicted),COc1ccc2c(c1)c(c[nH]2)C[C@@H](C(=O)O)[NH3],,,,25197-96-0,89496-02-6,tryptophan,non-natural,MOT5,COC1CCC2NCC(CC([NH3+])C(O)O)C2C1
MP34,"3,4-Dimethyl-phenylalanine",DM34,,193.24,0.20_(predicted),3.7,240.27,154.61,2.67_9.47_(predicted),O=[C](=O)[C@H](Cc1ccc(c(c1)C)C)[NH3],,,,142995-28-6,,phenylalanine,non-natural,MP34,CC1CCC(CC([NH3+])C(O)O)CC1C
MPH2,2-Methyl-phenylalanine,D2MF,,180.22,-1.04_(predicted),3.12,217.69,132.02,2.58_9.46_(predicted),OC(=O)[C@H](Cc1ccccc1C)[NH3],,2761493.0,,80126-53-0,,phenylalanine,non-natural,MPH2,CC1CCCCC1CC([NH3+])C(O)O
MTR5,5-Methyl-tryptophan,D5MW,,219.26,-0.92_(predicted),2.78_(predicted),255.65,169.98,2.61_9.41_(predicted),Cc1cc2c(C[C@@H](C(=O)O)[NH3])c[nH]c2cc1,,150990.0,,154-06-3,99295-79-1,tryptophan,non-natural,MTR5,CC1CCC2NCC(CC([NH3+])C(O)O)C2C1
MTR6,6-Methyl-tryptophan,D6MW,,219.26,-0.92_(predicted),2.78_(predicted),255.63,169.97,2.61_9.41_(predicted),OC(=O)[C@H](Cc1c[nH]c2c1ccc(c2)C)[NH3],,164910.0,,1991-93-1,,tryptophan,non-natural,MTR6,CC1CCC2C(CC([NH3+])C(O)O)CNC2C1
MTY,m-Tyrosine,DMTY,,182.2,-1.76_(predicted),1.98,206.75,121.09,2_9.14_9.52_(predicted),OC(=O)[C@H](Cc1cccc(c1)O)[NH3],,6950578.0,6950580.0,587-33-7,32140-49-1,phenylalanine,non-natural,MTY,[NH3+]C(CC1CCCC(O)C1)C(O)O
NAL,2-Naphthyl-alanine,DNAL,,216.26,-0.15,4,253.11,167.45,2.61_9.44_(predicted),OC(=O)[C@H](Cc1ccc2c(c1)cccc2)[NH3],,185915.0,,58438-03-2,76985-09-6,phenylalanine,non-natural,NAL,[NH3+]C(CC1CCC2CCCCC2C1)C(O)O
NAO1,5-hydroxy-1-naphthalene,D51N,,232.25,-0.51_(predicted),3.18_(predicted),260.31,174.65,2.24_9.25_9.81_(predicted),OC(=O)[C@H](Cc1cccc2c1cc(O)cc2)[NH3],,,,,,phenylalanine,non-natural,NAO1,[NH3+]C(CC1CCCC2CCC(O)CC21)C(O)O
NAO2,6-hydroxy-2-naphthalene,D62N,,232.25,-0.51_(predicted),3.18_(predicted),261.2,175.53,2.23_9.27_9.82_(predicted),OC(=O)[C@H](Cc1ccc2c(c1)cc(cc2)O)[NH3],,,,,,phenylalanine,non-natural,NAO2,[NH3+]C(CC1CCC2CCC(O)CC2C1)C(O)O
NIY,meta-nitro-tyrosine,DNIY,,226.19,-0.50_(predicted),2.15,233.44,147.78,0.96_9.48_6.3-(OH)_(predicted),O=[C](=O)[C@H](Cc1ccc(c(c1)N(=O)=O)O)[NH3],,65124.0,,621-44-3,32988-39-9,phenylalanine,non-natural,NIY,[NH3+]C(CC1CCC(O)C(N(O)O)C1)C(O)O
NLE,Norleucine,DNLE,DNE,131.17,-1.53,2.89,171.92,86.26,2.79_9.53_(predicted),CCCC[C@@H]([C](=O)=O)[NH3],,21236.0,456468.0,327-57-1,327-56-0,alanine,non-natural,NLE,CCCCC([NH3+])C(O)O
NVA,Norvaline,DNVA,,117.15,-1.86,2.36,149.67,64.01,2.36_9.76,CCC[C@@H]([C](=O)=O)[NH3],,65098.0,439575.0,6600-40-4,2013-12-9,alanine,non-natural,NVA,CCCC([NH3+])C(O)O
OAS,o-acetylserine,DOAS,,148.14,-3.48_(predicted),0.18,164.71,79.05,1.86_8.6_(predicted),CC(=O)OC[C@@H](C(=O)O)[NH3],,99478.0,,5147-00-2,44901-25-9,other,non-natural,OAS,CC(O)OCC([NH3+])C(O)O
OBF,"(2s)-2-amino-4,4-difluorobutanoic acid",DOBF,,140.11,-2.16_(predicted),0.75,141.26,55.6,1.79_9.36_(predicted),[NH3][C@H](C(=O)O)CC(F)F,,,,121960-22-3,,alanine,non-natural,OBF,[NH3+]C(CC(F)F)C(O)O
OCY,s-(2-hydroxyethyl)-l-cysteine,DOCY,,165.21,-2.52_(predicted),0.19_(predicted),184.75,99.09,2.26_9.14_(predicted),OCCSC[C@@H]([C](=O)=O)[NH3],,119224.0,,6367-98-2,85955-36-8,serine,non-natural,OCY,[NH3+]C(CSCCO)C(O)O
OLT,o-methyl-l-threonine,DOLT,,134.15,-3.08_(predicted),0.45_(predicted),158.68,73.01,2.34_8.89_(predicted),CO[C@@H]([C@@H](C(=O)O)[NH3])C,,2724875.0,,4144-02-9,,other,non-natural,OLT,COC(C)C([NH3+])C(O)O
OMT,Methionine sulfone,DOMT,,182.22,-3.1,-0.03_(predicted),194.49,108.83,1.55_9.49_(predicted),OC(=O)[C@H](CCS(=O)(=O)C)[NH3],,,,7314-32-1,,methionine,non-natural,OMT,CS(O)(O)CCC([NH3+])C(O)O
OMX,(betar)-beta-hydroxy-l-tyrosine,DOMX,,198.2,-2.88_(predicted),0.25,213.0,127.34,1.76_8.8_9.49-(para-OH)_(predicted),OC(=O)[C@H]([C@@H](c1ccc(cc1)O)O)[NH3],,,,,,phenylalanine,non-natural,OMX,[NH3+]C(C(O)O)C(O)C1CCC(O)CC1
OMY,(betar)-3-chloro-beta-hydroxy-l-tyrosine,DOMY,OMZ,232.64,-2.25_(predicted),1.31_(predicted),228.77,143.11,1.42_8.93_7.62_(predicted),OC(=O)[C@H]([C@@H](c1ccc(c(c1)Cl)O)O)[NH3],,,,,,phenylalanine,non-natural,OMY,[NH3+]C(C(O)O)C(O)C1CCC(O)C(Cl)C1
ONL,5-oxo-l-norleucine,DONL,,146.16,-3.35_(predicted),0.29,173.68,88.02,2.25_9.51_(predicted),CC(=O)CC[C@@H](C(=O)O)[NH3],,,,,,other,non-natural,ONL,CC(O)CCC([NH3+])C(O)O
ORN,Ornithine,DORN,ORD,133.17,-4.41,0.48,165.17,79.5,2.67_9.44_9.96_(predicted),[NH3]CCC[C@@H]([C](=O)=O)[NH3],,6262.0,,70-26-8,410523-47-6,lysine,non-natural,ORN,[NH3+]CCCC([NH3+])C(O)O
OTYR,o-Tyrosine,D2TR,,182.2,-1.76_(predicted),1.98,208.34,122.68,2.01_8.88_9.38_(predicted),OC(=O)[C@H](Cc1ccccc1O)[NH3],,6950574.0,,709-16-0,24008-77-3,phenylalanine,non-natural,OTYR,[NH3+]C(CC1CCCCC1O)C(O)O
PBF,4-benzoyl-phenylalanine,DPBF,,270.3,-0.07_(predicted),3.63_(predicted),315.08,229.42,1.59_9.21_(predicted),[NH3][C@H](C(=O)O)Cc1ccc(cc1)C(=O)c1ccccc1,,,,104504-45-2,201466-03-7,phenylalanine,non-natural,PBF,[NH3+]C(CC1CCC(C(O)C2CCCCC2)CC1)C(O)O
PF5,pentafluoro-phenylalanine,DPF5,,256.15,-0.91_(predicted),2.79_(predicted),224.06,138.39,0.34_9.17_(predicted),[NH3][C@H](C(=O)O)Cc1c(F)c(F)c(c(c1F)F)F,,,6992999.0,138109-65-6,40332-58-9,phenylalanine,non-natural,PF5,[NH3+]C(CC1C(F)C(F)C(F)C(F)C1F)C(O)O
PFF,4-Fluoro-Phenylalanine,DPFF,,184.19,-1.89,2.58,203.09,117.42,1.86_9.45_(predicted),[NH3][C@H](C(=O)O)Cc1ccc(cc1)F,,716312.0,,1132-68-9,18125-46-7,phenylalanine,non-natural,PFF,[NH3+]C(CC1CCC(F)CC1)C(O)O
PHI,4-Iodo-Phenylalanine,DPHI,,292.09,-0.76_(predicted),2.94_(predicted),222.19,136.52,1.9_9.44_(predicted),[NH3][C@H](C(=O)O)Cc1ccc(cc1)I,,134497.0,,24250-85-9,62561-75-5,phenylalanine,non-natural,PHI,[NH3+]C(CC1CCC(I)CC1)C(O)O
PPN,4-Nitro-phenylalanine,DPPN,,210.19,-1.25,2.37,223.74,138.07,1.16_9.37_(predicted),O=[C](=O)[C@H](Cc1ccc(cc1)N(=O)=O)[NH3],,13706.0,679497.0,949-99-5,56613-61-7,phenylalanine,non-natural,PPN,[NH3+]C(CC1CCC(N(O)O)CC1)C(O)O
PTR,phosphotyrosine,DPTR,,262.18,-3.07_(predicted),0.63_(predicted),257.71,172.04,1.98_9.46_6.21_1.25_(predicted),OC(=O)[C@H](Cc1ccc(cc1)OP(=O)(O)O)[NH3],,30819.0,,21820-51-9,108321-25-1,phenylalanine,non-natural,PTR,[NH3+]C(CC1CCC(O[PH](O)(O)O)CC1)C(O)O
PTR2,phosphotyrosine  (charge: -2),DPT6,,262.18,-3.07_(predicted),0.63_(predicted),256.37,170.71,1.98_9.46_6.21_1.25_(predicted),OC(=O)[C@H](Cc1ccc(cc1)OP(=O)(O)O)[NH3],,30819.0,,21820-51-9,108321-25-1,phenylalanine,non-natural,PTR2,[NH3+]C(CC1CCC(O[PH](O)(O)O)CC1)C(O)O
PYR2,3-(2-Pyridyl)-alanine,DY23,,166.18,-1.56_(predicted),1.11,193.91,108.25,1.77_9.27_3.04_(predicted),O=[C](=O)[C@H](Cc1ccccn1)[NH3],,2761499.0,7019768.0,37535-51-6,37535-52-7,phenylalanine,non-natural,PYR2,[NH3+]C(CC1CCCCN1)C(O)O