L-Code,Name,D-Code,D-code-PDB,Molecular_weight,LogP,Sidechain_logP,Volume,Sidechain_volume,pKa,SMILES,Fixed SMILES,Pubchem#,D-Pubchem#,CAS,D-CAS,family,natural,file,Mol2SMILES
D6CW,6-chloro-l-tryptophan,,,238.67,0.23_(predicted),3.04_(predicted),247.22,161.56,2.1_9.4_(predicted),O=[C](=O)[C@H](Cc1c[nH]c2c1ccc(c2)Cl)[NH3],,10062693.0,,33468-35-8,56632-86-1,tryptophan,non-natural,D6CW,[NH3+]C(CC1CNC2CC(Cl)CCC12)C([O-])O
DAA4,2-amino-5-hydroxypentanoic acid,,,134.15,-3.34_(predicted),0.25,159.95,74.28,2.36_9.22_(predicted),OCCC[C@@H](C(=O)O)[NH3],,,,6152-89-2,,serine,non-natural,DAA4,[NH3+]C(CCCO)C(O)O
DABA,2-Aminobutyric acid,,,103.12,-2.53,1.81,126.36,40.69,2.62_9.53_(predicted),CC[C@@H]([C](=O)=O)[NH3],,80283.0,439691.0,1492-24-6,2623-91-8,alanine,non-natural,DABA,CCC([NH3+])C([O-])O
DACZ,cis-amiclenomycin,,,198.26,-2.28_(predicted),1.67_(predicted),240.86,155.19,2.63_9.74_9.51_(predicted),[NH3][C@H](C(=O)O)CC[C@@H]1C=C[C@@H](C=C1)[NH3],,99594.0,,53696-70-1,53696-70-1,alanine,non-natural,DACZ,[NH3+]C1CCC(CCC([NH3+])C([O-])O)CC1
DADM,Adamanthane,,,223.31,1.33_(predicted),4.22_(predicted),279.98,194.32,2.58_9.51_(predicted),[NH3][C@H]([C](=O)=O)C[C@]12C[C@H]3C[C@@H](C2)C[C@@H](C1)C3,,,,,,alanine,non-natural,DADM,[NH3+]C(CC12CC3CC(CC(C3)C1)C2)C([O-])O
DAGM,5-methyl-arginine,,,190.24,-0.79_(predicted),0.38_(predicted),222.52,136.86,2.48_9.12_12.39_(predicted),C[C@H]([NH]=[C](=[NH2])=[NH2])CC[C@@H](C(=O)O)[NH3],,,,,,arginine,non-natural,DAGM,CC(CCC([NH3+])C(O)O)NC(N)N
DAHB,beta-hydroxyasparagine,,,149.12,-5.07_(predicted),-1.51_(predicted),149.18,63.52,1.8_7.89_12.64-(COH)_(predicted),OC(=O)[C@H]([C@@H](C(=O)N)O)[NH3],,,,,,asparagine,non-natural,DAHB,NC(O)C(O)C([NH3+])C(O)O
DAHP,2-Aminoheptanoic acid,,,146.21,-1.03_(predicted),3.39,193.71,108.04,2.85_9.53_(predicted),CCCCC[C@@H](C(=O)O)[NH3],,,,1115-90-8,1115-90-8,alanine,non-natural,DAHP,CCCCCC([NH3+])C([O-])O
DALC,3-cyclohexyl-alanine,,,172.25,-0.58,3.88,222.48,136.82,2.73_9.52_(predicted),[NH3][C@H](C(=O)O)CC1CCCCC1,,712421.0,736026.0,27527-05-5,58717-02-5,alanine,non-natural,DALC,[NH3+]C(CC1CCCCC1)C(O)O
DALN,1-Naphthyl-alanine,,,215.25,-0.22,3.87,251.3,165.63,2.61_9.42_(predicted),O=[C](=O)[C@H](Cc1cccc2c1cccc2)[NH3],,2724883.0,,55516-54-6,78306-92-0,phenylalanine,non-natural,DALN,[NH3+]C(CC1CCCC2CCCCC21)C([O-])O
DALO,Allo-threonine,,,119.12,-2.98,-0.3,137.59,51.92,2.23_0.99_(predicted),[NH3][C@H](C(=O)O)[C@H](C)O,,99289.0,90624.0,28954-12-3,24830-94-2,serine,non-natural,DALO,CC(O)C([NH3+])C([O-])O
DNTL,3-(9-anthryl)-alanine,,,266.31,1.09_(predicted),5.07,306.92,221.26,2.73_9.38_(predicted),OC(=O)[C@H](Cc1c2ccccc2cc2c1cccc2)[NH3],,,,100896-08-0,,phenylalanine,non-natural,DNTL,[NH3+]C(CC1C2CCCCC2CC2CCCCC21)C([O-])O
DAPD,3-Methyl-phenylalanine,,,180.22,-1.04_(predicted),3.2,219.56,133.9,2.58_9.45_(predicted),OC(=O)[C@H](Cc1cccc(c1)C)[NH3],,2761494.0,,114926-37-3,,phenylalanine,non-natural,DAPD,CC1CCCC(CC([NH3+])C(O)O)C1
DAPM,m-amidinophenyl-3-alanine,,,209.25,-0.82_(predicted),1.25_(predicted),235.25,149.58,2.15_9.41_11.46_(predicted),OC(=O)[C@H](Cc1cccc(c1)[C](=[NH2])=[NH2])[NH3],,,,,,phenylalanine,non-natural,DAPM,NC(N)C1CCCC(CC([NH3+])C(O)O)C1
DARO,c-gamma-hydroxy arginine,,,192.22,-2.16_(predicted),-1.19_(predicted),210.69,125.03,2.2_8.75_12.11_(predicted),O[C@H](C[C@@H](C(=O)O)[NH3])C[NH]=[C](=[NH2])=[NH2],,,,61370-10-3,,arginine,non-natural,DARO,NC(N)NCC1CC([NH3+])C(O)OO1
DAS2,(2r)-2-amino-4-oxobutanoic acid,,,117.1,-3.05_(predicted),0.45,130.36,44.7,1.95_8.98_(predicted),O=CC[C@@H]([C](=O)=O)[NH3],,,,15106-57-7,15106-57-7,other,non-natural,DAS2,[NH3+]C(CCO)C([O-])O
DZDA,azido-alanine,,,131.11,-1.58_(predicted),2.11_(predicted),139.29,53.63,1.66_8.94_4.27_(predicted),[NH3][C@H]([C](=O)=O)CN=[N]=N,,55785.0,55785.0,105661-40-3,105661-40-3,other,non-natural,DZDA,NNNCC([NH3+])C([O-])O
DBB8,Phenylserine,,,182.2,-2.52_(predicted),1.05,205.4,119.74,2.16_8.88_(predicted),O[C@H]([C@@H](C(=O)O)[NH3])c1ccccc1,,73562.0,672406.0,32946-42-2,109120-55-0,phenylalanine,non-natural,DBB8,[NH3+]C(C([O-])O)C(O)C1CCCCC1
DBCS,benzylcysteine,,,212.29,-1.22_(predicted),2.37_(predicted),243.78,158.12,2.42_9.14_(predicted),[NH3][C@H](C(=O)O)CSCc1ccccc1,,193613.0,,3054-01-1,23032-53-3,phenylalanine,non-natural,DBCS,[NH3+]C(CSCC1CCCCC1)C(O)O
DBHD,beta-hydroxyaspartic acid,,,148.09,-2.65_(predicted),-1.11,144.23,58.57,2.57_9.08_2.8-(COO-)_(predicted),O=[C](=O)[C@H]([C@@H]([C](=O)=O)[NH3])O,,,,7298-99-9,,aspartic,non-natural,DBHD,[NH3+]C(C([O-])O)C(O)C(O)O
DBIF,"4,4-biphenylalanine",,,242.29,0.22_(predicted),4.63,289.66,204.0,2.49_9.44_(predicted),[NH3][C@H](C(=O)O)Cc1ccc(cc1)c1ccccc1,,2761815.0,,155760-02-4,170080-13-4,phenylalanine,non-natural,DBIF,[NH3+][C@H](Cc1ccc(-c2ccccc2)cc1)C(=O)O
DBIU,5-bromo-l-isoleucine,,,211.08,-1.45_(predicted),2.75,196.65,110.99,2.26_9.56_(predicted),C[C@H]([C@@H](C(=O)O)[NH3])CCBr,,,,,,alanine,non-natural,DBIU,CC(CCBr)C([NH3+])C(O)O
DTH9,3-(3-benzothienyl)-alanine,,,221.28,0.49_(predicted),3.30_(predicted),239.68,154.02,2.36_9.34_(predicted),O=[C](=O)[C@H](Cc1csc2c1cccc2)[NH3],,,,72120-71-9,111139-55-0,tryptophan,non-natural,DTH9,[NH3+]C(CC1CSC2CCCCC12)C([O-])O
DBTR,6-bromo-tryptophan,,,284.13,-0.59_(predicted),3.10_(predicted),258.06,172.4,2.04_9.4_(predicted),OC(=O)[C@H](Cc1c[nH]c2c1ccc(c2)Br)[NH3],,,,52448-17-6,496930-10-0,tryptophan,non-natural,DBTR,[NH3+]C(CC1CNC2CC(Br)CCC12)C(O)O
DBUG,Tertleucine,,,132.18,-1.77,2.76,166.25,80.58,2.79_9.32_(predicted),[NH3][C@@H](C(C)(C)C)C(=O)O,[NH3][C@@H](C(C)(C)C)C(=O)O,164608.0,6950340.0,20859-02-3,26782-71-8,alanine,non-natural,DBUG,CC(C)(C)C([NH3+])C(O)O
DC2N,3-chloro-l-alanine,,,123.54,-1.89_(predicted),0.91,123.21,37.55,1.7_8.52_(predicted),ClC[C@@H]([C](=O)=O)[NH3],,439772.0,,2731-73-9,39217-38-4,alanine,non-natural,DC2N,[NH3+]C(CCl)C([O-])O
DCAN,canaline,,,135.14,-3.90_(predicted),-0.30_(predicted),152.27,66.6,2.24_9.46_4.4-(NH2)_(predicted),[NH3][C@H](C(=O)O)CCON,,441443.0,,496-93-5,128395-79-9,other,non-natural,DCAN,NOCCC([NH3+])C(O)O
DCCS,carboxymethylated cysteine,,,179.19,-2.24_(predicted),1.35_(predicted),183.74,98.08,1.84_9.14_4.05_(predicted),O=[C](=O)CSC[C@@H](C(=O)O)[NH3],,193653.0,6452242.0,638-23-3,50698-76-5,aspartic,non-natural,DCCS,[NH3+]C(CSCC(O)O)C([O-])O
DCHG,Cyclohexylglycine,,,158.22,-0.9,3.44,201.13,115.47,2.67_9.58_(predicted),[NH3][C@H](C(=O)O)C1CCCCC1,,736848.0,736849.0,14328-51-9,14328-52-0,alanine,non-natural,DCHG,[NH3+]C(C([O-])O)C1CCCCC1
DCHP,3-chloro-4-hydroxy-phenylglycine,,,202.62,-1.43_(predicted),2.15,198.79,113.13,1.28_8.85_7.82_(predicted),OC(=O)[C@H](c1ccc(c(c1)Cl)O)[NH3],,,,,,phenylglycine,non-natural,DCHP,[NH3+]C(C(O)O)C1CCC(O)C(Cl)C1
DCIR,Citrulline,,,175.19,-3.19,-0.14_(predicted),198.96,113.3,2.27_9.23_(predicted),OC(=O)[C@H](CCC[NH]=[C](=O)=[NH2])[NH3],,9750.0,637599.0,372-75-8,13594-51-9,arginine,non-natural,DCIR,NC(O)NCCCC([NH3+])C([O-])O
D2CF,2-cyano-phenylalanine,,,191.21,-1.69_(predicted),2.21,218.05,132.39,1.53_9.35_(predicted),N#Cc1ccccc1C[C@@H](C(=O)O)[NH3],,2761502.0,,263396-42-5,263396-41-4,phenylalanine,non-natural,D2CF,NCC1CCCCC1CC([NH3+])C([O-])O
D24E,"2,4-dichloro-phenylalanine",,,235.09,-0.15_(predicted),4.24,228.93,143.26,1.46_9.36_(predicted),OC(=O)[C@H](Cc1ccc(cc1Cl)Cl)[NH3],,2761497.0,6993648.0,111119-36-9,114872-98-9,phenylalanine,non-natural,D24E,[NH3+]C(CC1CCC(Cl)CC1Cl)C([O-])O
D34E,"3,4-dichloro-phenylalanine",,,235.09,-0.15_(predicted),3.95,229.65,143.98,1.45_9.42_(predicted),OC(=O)[C@H](Cc1ccc(c(c1)Cl)Cl)[NH3],,2761498.0,,52794-99-7,52794-98-6,phenylalanine,non-natural,D34E,[NH3+]C(CC1CCC(Cl)C(Cl)C1)C([O-])O
DCPE,3-Cyclopentyl-alanine,,,157.21,0.07_(predicted),3.37,202.67,117.01,2.67_9.52_(predicted),[NH3][C@H]([C](=O)=O)CC1CCCC1,,,,,,alanine,non-natural,DCPE,[NH3+]C(CC1CCCC1)C([O-])O
DCG6,2-Chloro-phenylglycine,,,185.61,-0.19_(predicted),2.84,189.86,104.2,1.57_8.87_(predicted),O=[C](=O)[C@H](c1ccccc1Cl)[NH3],,,,141315-50-6,86169-24-6,phenylglycine,non-natural,DCG6,[NH3+]C(C([O-])O)C1CCCCC1Cl
DCG5,3-Chloro-phenylglycine,,,186.62,-1.08_(predicted),2.84,190.74,105.08,1.57_8.74_(predicted),OC(=O)[C@H](c1cccc(c1)Cl)[NH3],,,,,,phenylglycine,non-natural,DCG5,[NH3+]C(C(O)O)C1CCCC(Cl)C1
DCGD,4-Chloro-phenylglycine,,,186.62,-1.08_(predicted),2.84,190.76,105.1,1.56_8.79_(predicted),[NH3][C@@H](c1ccc(cc1)Cl)C(=O)O,[NH3][C@@H](c1ccc(cc1)Cl)C(=O)O,,,,,phenylglycine,non-natural,DCGD,[NH3+]C(C([O-])O)C1CCC(Cl)CC1
DCF6,2-chloro-Phenylalanine,,,200.64,-0.78_(predicted),3.42,212.81,127.14,1.86_9.37_(predicted),OC(=O)[C@H](Cc1ccccc1Cl)[NH3],,2761491.0,,103616-89-3,80126-50-7,phenylalanine,non-natural,DCF6,[NH3+]C(CC1CCCCC1Cl)C([O-])O
DCSA,s-acetonylcysteine,,,178.23,-2.96_(predicted),0.63_(predicted),198.53,112.86,2.16_8.93_(predicted),CC(=O)CSC[C@@H](C(=O)O)[NH3],,,,,,other,non-natural,DCSA,CC(O)CSCC([NH3+])C(O)O
DCSE,Selenocysteine,,,168.05,-2.91_(predicted),0.68_(predicted),137.7,52.04,1.27_8.42_(predicted),[NH3][C@H]([C](=O)=O)C[SeH],,,,10236-58-5,,cysteine,non-natural,DCSE,[NH3+][C@H](C[SeH])C(O)O
DCTE,7-chloro-tryptophan,,,238.67,0.23_(predicted),3.04_(predicted),246.42,160.76,2.15_9.4_(predicted),[NH3][C@H]([C](=O)=O)Cc1c[nH]c2c1cccc2Cl,,,,73945-46-7,75102-74-8,tryptophan,non-natural,DCTE,[NH3+]C(CC1CNC2C(Cl)CCCC12)C([O-])O
DCTH,4-chloro-threonine,,,154.57,-3.39_(predicted),-0.06,153.29,67.63,1.73_8.96_(predicted),ClC[C@H]([C@@H](C(=O)O)[NH3])O,,,,132958-66-8,,serine,non-natural,DCTH,[NH3+]C(C(O)O)C(O)CCl
DD4P,4-Hydroxy-phenylglycine,,,168.17,-2.06_(predicted),1.5,183.66,97.99,1.74_8.75_9.59_(predicted),OC(=O)[C@H](c1ccc(cc1)O)[NH3],,36143.0,89853.0,32462-30-9,22818-40-2,phenylglycine,non-natural,DD4P,[NH3+]C(C([O-])O)C1CCC(O)CC1
DDAB,Diaminobutyric acid,,,119.14,-4.64,-0.13,140.05,54.39,2.55_8.26_9.99_(predicted),[NH3]CC[C@@H]([C](=O)=O)[NH3],,,,,26908-94-1,lysine,non-natural,DDAB,[NH3+]CC[C@@H]([NH3+])C(=O)O
DDAH,"3,4-Dihydroxy-phenylalanine",,,198.2,-2.74,1.37,214.52,128.86,1.65_9.06_9.69_12.74_(predicted),OC(=O)[C@H](Cc1ccc(c(c1)O)O)[NH3],,6047.0,92222.0,59-92-7,5796-17-8,phenylalanine,non-natural,DDAH,[NH3+]C(CC1CCC(O)C(O)C1)C(O)O
DDBY,"3,5-dibromotyrosine",,,339.99,-0.38_(predicted),3.31_(predicted),259.58,173.92,1.35_9.44_6.75_(predicted),OC(=O)[C@H](Cc1cc(Br)c(c(c1)Br)O)[NH3],,67532.0,,300-38-9,50299-42-8,phenylalanine,non-natural,DDBY,[NH3+]C(CC1CC(Br)C(O)C(Br)C1)C(O)O
DDDZ,"3,3-dihydroxy-alanine",,,122.1,-4.57_(predicted),-1.05_(predicted),124.84,39.18,1.72_8.36_11.91_13.78_(predicted),OC([C@@H](C(=O)O)[NH3])O,,,,,,serine,non-natural,DDDZ,[NH3+]C(C(O)O)C(O)O
D2EL,Diethylalanine,,,146.21,-1.32_(predicted),3.39,185.21,99.55,2.85_9.58_(predicted),CCC([C@@H](C(=O)O)[NH3])CC,,,,14328-53-1,14328-53-1,alanine,non-natural,D2EL,CCC(CC)C([NH3+])C([O-])O
D2F1,"3,3-diphenylalanine",,,242.29,0.04_(predicted),4.14,285.51,199.85,2.44_9.41_(predicted),[NH3][C@@H]([C@H](c1ccccc1)c1ccccc1)C(=O)O,[NH3][C@@H]([C@H](c1ccccc1)c1ccccc1)C(=O)O,,,149597-92-2,149597-91-1,phenylalanine,non-natural,D2F1,[NH3+]C(C(O)O)C(C1CCCCC1)C1CCCCC1
DDMK,"3,3-dimethyl aspartic acid",,,160.15,-1.17_(predicted),0.94,176.26,90.6,2.01_9.74_4.3_(predicted),O=[C](=O)[C@H](C([C](=O)=O)(C)C)[NH3],,,,,,aspartic,non-natural,DDMK,CC(C)(C(O)O)C([NH3+])C([O-])O
DDF4,3-ethyl-phenylalanine,,,194.25,-0.61_(predicted),3.98,242.19,156.52,2.62_9.45_(predicted),CCc1cccc(c1)C[C@@H](C(=O)O)[NH3],,,,,,phenylalanine,non-natural,DDF4,CCC1CCCC(CC([NH3+])C([O-])O)C1
DDPP,"2,3-Diaminopropanoic acid",,,105.12,-3.42_(predicted),-0.57,116.32,30.66,2.1_6.59_8.09_(predicted),[NH3]C[C@@H]([C](=O)=O)[NH3],,97328.0,,4033-39-0,1915-96-4,lysine,non-natural,DDPP,[NH3+]CC([NH3+])C([O-])O
DESC,Ethionine,,,164.25,-1.99_(predicted),1.95,196.56,110.9,2.61_9.5_(predicted),CCSCC[C@@H](C(=O)O)[NH3],,25674.0,92124.0,13073-35-3,535-32-0,methionine,non-natural,DESC,CCSCCC([NH3+])C([O-])O
DF2F,"3,4-Difluoro-phenylalanine",,,202.18,-1.21_(predicted),2.49_(predicted),208.48,122.82,1.4_9.42_(predicted),OC(=O)[C@H](Cc1ccc(c(c1)F)F)[NH3],,716295.0,,31105-90-5,249648-08-6,phenylalanine,non-natural,DF2F,[NH3+]C(CC1CCC(F)C(F)C1)C([O-])O
DFCL,3-chloro-Phenylalanine,,,200.64,-0.78_(predicted),3.28,213.76,128.1,1.85_9.42_(predicted),OC(=O)[C@H](Cc1cccc(c1)Cl)[NH3],,2761492.0,7009409.0,80126-51-8,80126-52-9,phenylalanine,non-natural,DFCL,[NH3+]C(CC1CCCC(Cl)C1)C([O-])O
D4FG,4-Fluoro-glutamic acid,,,166.13,-3.03_(predicted),1.45_(predicted),162.47,76.81,1.78_9.45_3.64_(predicted),OC(=O)[C@H](C[C@@H](C(=O)O)F)[NH3],,,,91383-47-0,149117-03-3,aspartic,non-natural,D4FG,[NH3+]C(CC(F)C(O)O)C([O-])O
DFGL,2-amino-propanedioic acid,,,118.07,-1.84_(predicted),-0.54,114.97,29.3,0.45_8.5_3.01_(predicted),[NH3]C([C](=O)=O)[C](=O)=O,,,,1068-84-4,,aspartic,non-natural,DFGL,[NH3+]C(C([O-])O)C(O)O
DFLA,Trifluoro-alanine,,,144.07,-2.25_(predicted),0.64,119.94,34.28,1.02_4.73_(predicted),[NH3][C@@H](C(F)(F)F)C(=O)O,[NH3][C@@H](C(F)(F)F)C(=O)O,,,,,alanine,non-natural,DFLA,[NH3+]C(C([O-])O)C(F)(F)F
DFP6,2-Fluoro-phenylglycine,,,170.16,-1.60_(predicted),2.27,182.98,97.31,1.58_8.96_(predicted),OC(=O)[C@H](c1ccccc1F)[NH3],,,,,,phenylglycine,non-natural,DFP6,[NH3+]C(C([O-])O)C1CCCCC1F
DFP7,3-Fluoro-phenylglycine,,,170.16,-1.60_(predicted),2.27,183.32,97.66,1.57_8.96_(predicted),OC(=O)[C@H](c1cccc(c1)F)[NH3],,,,,,phenylglycine,non-natural,DFP7,[NH3+]C(C([O-])O)C1CCCC(F)C1
DFP8,4-Fluoro-phenylglycine,,,170.16,-1.60_(predicted),2.27,180.04,94.38,1.57_8.96_(predicted),[NH3][C@@H](c1ccc(cc1)F)C(=O)O,[NH3][C@@H](c1ccc(cc1)F)C(=O)O,853015.0,124515.0,19883-57-9,93939-74-3,phenylglycine,non-natural,DFP8,[NH3+]C(C([O-])O)C1CCC(F)CC1
DFF2,2-Fluoro-Phenylalanine,,,184.19,-1.31_(predicted),2.39_(predicted),202.75,117.09,1.86_9.33_(predicted),OC(=O)[C@H](Cc1ccccc1F)[NH3],,716319.0,716322.0,19883-78-4,122839-51-4,phenylalanine,non-natural,DFF2,[NH3+]C(CC1CCCCC1F)C([O-])O
DFF3,3-Fluoro-Phenylalanine,,,184.19,-1.31_(predicted),2.75,203.08,117.42,1.86_9.41_(predicted),OC(=O)[C@H](Cc1cccc(c1)F)[NH3],,716315.0,,19883-77-3,2629-54-1,phenylalanine,non-natural,DFF3,[NH3+]C(CC1CCCC(F)C1)C([O-])O
DFT6,6-fluoro-l-tryptophan,,,223.22,-0.78,2.51_(predicted),236.8,151.14,2.13_9.4_(predicted),OC(=O)[C@H](Cc1c[nH]c2c1ccc(c2)F)[NH3],,,,19310-00-0,108391-82-8,tryptophan,non-natural,DFT6,[NH3+]C(CC1CNC2CC(F)CCC12)C([O-])O
DFTR,5-Fluoro-tryptophan,,,223.22,-0.71,2.51_(predicted),239.19,153.53,2.12_9.4_(predicted),[NH3][C@H](C(=O)O)Cc1c[nH]c2c1cc(F)cc2,,,,97749-24-1,16626-02-1,tryptophan,non-natural,DFTR,[NH3+]C(CC1CNC2CCC(F)CC12)C([O-])O
DFUO,(2-furyl)-alanine,,,156.16,-2.31_(predicted),1.85,177.78,92.12,1.34_9.18_(predicted),OC(=O)[C@H](Cc1ccco1)[NH3],,2761503.0,,127682-08-0,110772-46-8,histidine,non-natural,DFUO,[NH3+]C(CC1CCCO1)C([O-])O
DFVL,3-Fluoro-valine,,,136.15,-2.40_(predicted),1.37_(predicted),152.86,67.2,2.35_8.43_(predicted),[NH3][C@@H](C(F)(C)C)C(=O)O,[NH3][C@@H](C(F)(C)C)C(=O)O,,,,,alanine,non-natural,DFVL,CC(C)(F)C([NH3+])C([O-])O
DGBT,2-Amino-4-guanidinobutryric acid,,,161.18,-0.66_(predicted),-0.58_(predicted),183.35,97.69,2.31_9.7_12.32_(predicted),O=[C](=O)[C@H](CC[NH]=[C](=[NH2])=[NH2])[NH3],,,,,,arginine,non-natural,DGBT,NC(N)NCCC([NH3+])C([O-])O
DGPA,2-Amino-3-guanidinopropionic acid,,,147.16,-1.02_(predicted),-0.94_(predicted),159.06,73.39,2.06_6.75_12.24_(predicted),[NH3][C@H]([C](=O)=O)C[NH]=[C](=[NH2])=[NH2],,,,,,arginine,non-natural,DGPA,NC(N)NC[C@@H]([NH3+])C(=O)O
DGGB,Canavanine,,,176.17,-3.20_(predicted),-0.48_(predicted),192.41,106.75,2.1_9.16_6.64-(N)_(predicted),[NH3][C@H]([C](=O)=O)CCON=C(N)N,,439202.0,,543-38-4,,arginine,non-natural,DGGB,NC(N)NOCCC([NH3+])C([O-])O
DGHG,"(2s,4s)-2,5-diamino-4-hydroxy-5-oxopentanoic acid",,,162.14,-3.83_(predicted),-1.11_(predicted),171.1,85.44,1.93_8.94_(predicted),NC(=O)[C@H](C[C@@H]([C](=O)=O)[NH3])O,,,,,,asparagine,non-natural,DGHG,NC(O)C(O)CC([NH3+])C([O-])O
DGME,5-o-methyl-glutamic acid,,,162.16,-3.18_(predicted),0.82,185.52,99.86,2.02_9.51_(predicted),COC(=O)CC[C@@H](C(=O)O)[NH3],,68662.0,111219.0,1499-55-4,6461-04-7,aspartic,non-natural,DGME,COC(O)CCC([NH3+])C(O)O
DHCS,homocysteine,,,136.19,-2.72_(predicted),0.88_(predicted),147.98,62.32,2.46_9.41_10.18_(predicted),[NH3][C@H](C(=O)O)CCS,,91552.0,,6027-13-0,,cysteine,non-natural,DHCS,[NH3+]C(CCS)C(O)O
DHGA,glutamine hydroxamate,,,163.15,-4.25_(predicted),-0.48_(predicted),174.39,88.72,1.93_9.46_8.91-(OH)_(predicted),ONC(=O)CC[C@@H](C(=O)O)[NH3],,,,,,asparagine,non-natural,DHGA,[NH3+]C(CCC(O)NO)C(O)O
DHHK,"(2s)-2,8-diaminooctanoic acid",,,176.26,-2.34_(predicted),2.06,230.11,144.45,2.84_9.44_10.29_(predicted),[NH3]CCCCCC[C@@H](C(=O)O)[NH3],,,,,,lysine,non-natural,DHHK,[NH3+]CCCCCCC([NH3+])C(O)O
DHIL,4-Hydroxy-L-isoleucine,,,148.18,-2.82_(predicted),0.65,175.95,90.28,2.46_9.22_(predicted),C[C@H]([C@@H]([C@@H](C(=O)O)[NH3])C)O,,2773624.0,,781658-23-9,,serine,non-natural,DHIL,CC(O)C(C)C([NH3+])C([O-])O
DHL2,"(2s,3r)-2-amino-3-hydroxy-4-methylpentanoic acid",,,148.18,-2.65_(predicted),0.76,175.73,90.07,2.44_8.99_(predicted),CC([C@H]([C@@H](C(=O)O)[NH3])O)C,,,,,,serine,non-natural,DHL2,CC(C)[C@@H](O)[C@@H]([NH3+])C(=O)O
DHL1,Homoleucine,,,145.2,-0.44_(predicted),2.64_(predicted),191.57,105.91,2.85_9.53_(predicted),[NH3][C@H]([C](=O)=O)CCC(C)C,,,,,,alanine,non-natural,DHL1,CC(C)CCC([NH3+])C([O-])O
DHLU,beta-hydroxyleucine,,,147.17,-1.77_(predicted),0.76,178.34,92.68,2.44_8.99_(predicted),CC([C@@H]([C@@H]([C](=O)=O)[NH3])O)C,,134611.0,,5817-22-1,,serine,non-natural,DHLU,CC1COC(O)C([NH3+])C1O
DHOX,4-amino-L-phenylalanine,,,181.21,-2.2,1.39,208.82,123.15,1.54_9.52_4.24_(predicted),[NH3][C@H](C(=O)O)Cc1ccc(cc1)N,,151001.0,,943-80-6,102281-45-8,phenylalanine,non-natural,DHOX,Nc1ccc(C[C@@H]([NH3+])C(=O)O)cc1
DHPE,Homophenylalanine,,,180.22,-1.2,3.15,218.78,133.11,2.55_9.52_(predicted),[NH3][C@H](C(=O)O)CCc1ccccc1,,2724505.0,,943-73-7,82795-51-5,phenylalanine,non-natural,DHPE,[NH3+]C(CCC1CCCCC1)C([O-])O
DHQA,3-(8-hydroxyquinolin-3-yl)-l-alanine,,,233.24,-1.50_(predicted),2.20_(predicted),255.25,169.59,1.48_9.66_2.66_9.4_(predicted),OC(=O)[C@H](Cc1cnc2c(c1)cccc2O)[NH3],,,,,,phenylalanine,non-natural,DHQA,[NH3+]C(CC1CNC2C(O)CCCC2C1)C([O-])O
DHRG,homoarginine,,,190.24,-3.9,0.31_(predicted),225.15,139.49,2.49_9.45_12.23_(predicted),[NH2]=[C](=[NH]CCCC[C@@H](C(=O)O)[NH3])=[NH2],,,,156-86-5,110798-13-5,arginine,non-natural,DHRG,NC(N)NCCCCC([NH3+])C(O)O
DHRP,5-Hydroxy-tryptophan,,,221.23,-1.64_(predicted),2.06_(predicted),242.85,157.19,2.15_9.18_9.63_(predicted),OC(=O)[C@H](Cc1c[nH]c2c1cc(O)cc2)[NH3],,439280.0,,4350-09-8,,tryptophan,non-natural,DHRP,[NH3+]C(CC1CNC2CCC(O)CC12)C([O-])O
DHSE,homoserine,,,120.13,-3.69_(predicted),-0.3,137.74,52.08,2.23_9.16_(predicted),OCC[C@@H](C(=O)O)[NH3],,12647.0,2724170.0,672-15-1,6027-21-0,serine,non-natural,DHSE,[NH3+]C(CCO)C(O)O
DHTR,beta-hydroxy-tryptophane,,,221.23,-2.39_(predicted),1.16_(predicted),238.5,152.84,2.3_8.83_(predicted),OC(=O)[C@H]([C@H](c1c[nH]c2c1cccc2)O)[NH3],,,,,,tryptophan,non-natural,DHTR,[NH3+]C(C(O)O)C(O)C1CNC2CCCCC21
DHVA,3-hydroxy-l-valine,,,133.15,-2.55_(predicted),0.05,152.99,67.33,2.34_9.08_(predicted),[NH3][C@@H](C(O)(C)C)[C](=O)=O,,192763.0,,2280-27-5,2280-28-6,serine,non-natural,DHVA,CC(C)(O)C([NH3+])C([O-])O
DI2M,3-methyl-l-alloisoleucine,,,146.21,-1.28_(predicted),2.64_(predicted),184.17,98.51,2.85_9.31_(predicted),CCC([C@@H](C(=O)O)[NH3])(C)C,,,,,,alanine,non-natural,DI2M,CCC(C)(C)C([NH3+])C(O)O
DIGL,alpha-amino-2-indanacetic acid,,,191.23,-0.23_(predicted),3.33,226.06,140.4,2.4_9.56_(predicted),[NH3][C@H]([C](=O)=O)[C@@H]1Cc2c(C1)cccc2,,,,,,alanine,non-natural,DIGL,[NH3+]C(C([O-])O)C1CC2CCCCC2C1
DIIL,Allo-Isoleucine,,,132.18,-1.76,2.89,171.18,85.52,2.79_9.59_(predicted),CC[C@H]([C@@H](C(=O)O)[NH3])C,,,94206.0,1509-34-8,1509-35-9,alanine,non-natural,DIIL,CCC(C)C([NH3+])C(O)O
DILX,"4,5-dihydroxy-isoleucine",,,163.17,-2.99_(predicted),-0.18_(predicted),187.58,101.92,2.2_8.9_(predicted),OC[C@@H]([C@@H]([C@@H]([C](=O)=O)[NH3])C)O,,,,,,serine,non-natural,DILX,CC1C(CO)OOC(O)C1[NH3+]
DIYR,3-iodo-tyrosine,,,308.09,-1.11_(predicted),2.58_(predicted),228.89,143.23,1.54_9.5_8.16_(predicted),OC(=O)[C@H](Cc1ccc(c(c1)I)O)[NH3],,439744.0,,70-78-0,,phenylalanine,non-natural,DIYR,[NH3+]C(CC1CCC(O)C(I)C1)C(O)O