L-Code,Name,D-Code,D-code-PDB,Molecular_weight,LogP,Sidechain_logP,Volume,Sidechain_volume,pKa,SMILES,Fixed SMILES,Pubchem#,D-Pubchem#,CAS,D-CAS,family,natural,file,Mol2SMILES
DKYN,kynurenine,,,209.22,-2.18_(predicted),1.63,229.38,143.72,1.19_8.96_2.43_(predicted),OC(=O)[C@H](CC(=O)c1ccccc1N)[NH3],,161166.0,1152206.0,2922-83-0,13441-51-5,phenylalanine,non-natural,DKYN,NC1CCCCC1C(O)CC([NH3+])C(O)O
DLDO,6-hydroxy-l-norleucine,,,148.18,-2.98_(predicted),0.84,182.18,96.52,2.46_9.53_(predicted),OCCCC[C@@H](C(=O)O)[NH3],,97725.0,,6033-32-5,,serine,non-natural,DLDO,[NH3+]C(CCCCO)C(O)O
DLE1,Penicillamine,,,150.22,-1.78,1.31_(predicted),162.89,77.23,2.56_9.09_9.85_(predicted),[NH3][C@@H](C(S)(C)C)C(=O)O,[NH3][C@@H](C(S)(C)C)C(=O)O,,5852.0,1113-41-3,52-67-5,cysteine,non-natural,DLE1,CC(C)(S)C([NH3+])C(O)O
DLED,(4r)-5-oxo-l-leucine,,,146.16,-3.00_(predicted),0.77_(predicted),173.37,87.71,2.25_9.51_(predicted),O=C[C@@H](C[C@@H](C(=O)O)[NH3])C,,,,,,other,non-natural,DLED,CC(CO)CC([NH3+])C(O)O
DLEF,(4s)-5-fluoro-l-leucine,,,150.17,-1.87_(predicted),1.90_(predicted),175.89,90.23,2.52_9.52_(predicted),FC[C@H](C[C@@H](C(=O)O)[NH3])C,,,,,,alanine,non-natural,DLEF,CC(CF)CC([NH3+])C(O)O
DLME,(3r)-3-methyl-l-glutamic acid,,,161.16,-2.19_(predicted),0.79,176.87,91.21,2.02_9.6_4.24_(predicted),O=[C](=O)C[C@H]([C@@H](C(=O)O)[NH3])C,,,,,,aspartic,non-natural,DLME,CC(CC(O)O)C([NH3+])C([O-])O
DLMQ,3-methyl-l-glutamine,,,161.18,-3.72_(predicted),-0.21,180.35,94.68,2.26_9.38_(predicted),NC(=O)C[C@@H]([C@@H](C(=O)O)[NH3])C,,,,,,asparagine,non-natural,DLMQ,CC(CC(N)O)C([NH3+])C(O)O
DLVG,vinylglycine,,,101.1,-1.67_(predicted),1.13,121.26,35.6,2.42_8.95_(predicted),C=C[C@@H]([C](=O)=O)[NH3],,156126.0,,70982-53-5,,alanine,non-natural,DLVG,CCC([NH3+])C([O-])O
DLVN,4-oxo-l-valine,,,131.13,-2.48_(predicted),0.59,150.07,64.41,2.12_9.05_(predicted),O=C[C@H]([C@@H]([C](=O)=O)[NH3])C,,,,,,other,non-natural,DLVN,CC(CO)C([NH3+])C([O-])O
DM2S,"3,3-dimethyl-methionine sulfoxide",,,194.27,-3.08_(predicted),1.73_(predicted),217.36,131.7,2_9.3_(predicted),C[S@@](=O)CC([C@@H](C(=O)O)[NH3])(C)C,,,,,,other,non-natural,DM2S,C[SH](O)CC(C)(C)C([NH3+])C(O)O
DME0,hydroxy-l-methionine,,,166.22,-2.95_(predicted),0.66_(predicted),184.55,98.89,2.23_9.5_(predicted),OCSCC[C@@H](C(=O)O)[NH3],,,,,,methionine,non-natural,DME0,[NH3+]C(CCSCO)C(O)O
DMEG,(3s)-3-methyl-l-glutamic acid,,,161.16,-2.19_(predicted),0.79,176.72,91.06,2.02_9.6_4.25_(predicted),O=[C](=O)C[C@@H]([C@@H](C(=O)O)[NH3])C,,,,,,aspartic,non-natural,DMEG,CC(CC(O)O)C([NH3+])C([O-])O
DMEN,n-methyl-asparagine,,,147.15,-4.12_(predicted),-1.05,164.52,78.86,2.14_8.43_(predicted),CNC(=O)C[C@@H](C(=O)O)[NH3],,100393.0,,7175-34-0,86070-35-1,asparagine,non-natural,DMEN,CNC(O)CC([NH3+])C(O)O
DMEQ,n5-methyl-glutamine,,,161.18,-3.76_(predicted),0.01_(predicted),188.27,102.61,2.23_9.31_(predicted),CNC(=O)CC[C@@H](C(=O)O)[NH3],,,,,,asparagine,non-natural,DMEQ,CNC(O)CCC([NH3+])C(O)O
DMHO,s-oxymethionine,,,166.22,-3.91_(predicted),0.77_(predicted),183.35,97.68,1.74_9.51_(predicted),C[S@@](=O)CC[C@@H](C(=O)O)[NH3],,158980.0,,3226-65-1,,methionine,non-natural,DMHO,C[SH](O)CCC([NH3+])C(O)O
D5XW,5-Methoxy-tryptophan,,,235.26,-1.31_(predicted),2.38_(predicted),267.48,181.82,2.22_9.42_(predicted),COc1ccc2c(c1)c(c[nH]2)C[C@@H](C(=O)O)[NH3],,,,25197-96-0,89496-02-6,tryptophan,non-natural,D5XW,COC1CCC2NCC(CC([NH3+])C([O-])O)C2C1
DM34,"3,4-Dimethyl-phenylalanine",,,193.24,0.20_(predicted),3.7,240.27,154.61,2.67_9.47_(predicted),O=[C](=O)[C@H](Cc1ccc(c(c1)C)C)[NH3],,,,142995-28-6,,phenylalanine,non-natural,DM34,CC1CCC(CC([NH3+])C([O-])O)CC1C
D2MF,2-Methyl-phenylalanine,,,180.22,-1.04_(predicted),3.12,217.69,132.02,2.58_9.46_(predicted),OC(=O)[C@H](Cc1ccccc1C)[NH3],,2761493.0,,80126-53-0,,phenylalanine,non-natural,D2MF,CC1CCCCC1CC([NH3+])C([O-])O
D5MW,5-Methyl-tryptophan,,,219.26,-0.92_(predicted),2.78_(predicted),255.65,169.98,2.61_9.41_(predicted),Cc1cc2c(C[C@@H](C(=O)O)[NH3])c[nH]c2cc1,,150990.0,,154-06-3,99295-79-1,tryptophan,non-natural,D5MW,CC1CCC2NCC(CC([NH3+])C([O-])O)C2C1
D6MW,6-Methyl-tryptophan,,,219.26,-0.92_(predicted),2.78_(predicted),255.63,169.97,2.61_9.41_(predicted),OC(=O)[C@H](Cc1c[nH]c2c1ccc(c2)C)[NH3],,164910.0,,1991-93-1,,tryptophan,non-natural,D6MW,CC1CCC2C(CC([NH3+])C(O)O)CNC2C1
DMTY,m-Tyrosine,,,182.2,-1.76_(predicted),1.98,206.75,121.09,2_9.14_9.52_(predicted),OC(=O)[C@H](Cc1cccc(c1)O)[NH3],,6950578.0,6950580.0,587-33-7,32140-49-1,phenylalanine,non-natural,DMTY,[NH3+]C(CC1CCCC(O)C1)C([O-])O
DNAL,2-Naphthyl-alanine,,,216.26,-0.15,4,253.11,167.45,2.61_9.44_(predicted),OC(=O)[C@H](Cc1ccc2c(c1)cccc2)[NH3],,185915.0,,58438-03-2,76985-09-6,phenylalanine,non-natural,DNAL,[NH3+]C(CC1CCC2CCCCC2C1)C(O)O
D51N,5-hydroxy-1-naphthalene,,,232.25,-0.51_(predicted),3.18_(predicted),260.31,174.65,2.24_9.25_9.81_(predicted),OC(=O)[C@H](Cc1cccc2c1cc(O)cc2)[NH3],,,,,,phenylalanine,non-natural,D51N,[NH3+]C(CC1CCCC2CCC(O)CC21)C([O-])O
D62N,6-hydroxy-2-naphthalene,,,232.25,-0.51_(predicted),3.18_(predicted),261.2,175.53,2.23_9.27_9.82_(predicted),OC(=O)[C@H](Cc1ccc2c(c1)cc(cc2)O)[NH3],,,,,,phenylalanine,non-natural,D62N,[NH3+]C(CC1CCC2CCC(O)CC2C1)C(O)O
DNIY,meta-nitro-tyrosine,,,226.19,-0.50_(predicted),2.15,233.44,147.78,0.96_9.48_6.3-(OH)_(predicted),O=[C](=O)[C@H](Cc1ccc(c(c1)N(=O)=O)O)[NH3],,65124.0,,621-44-3,32988-39-9,phenylalanine,non-natural,DNIY,[NH3+]C(CC1CCC(O)C(N(O)O)C1)C([O-])O
DNLE,Norleucine,,,131.17,-1.53,2.89,171.92,86.26,2.79_9.53_(predicted),CCCC[C@@H]([C](=O)=O)[NH3],,21236.0,456468.0,327-57-1,327-56-0,alanine,non-natural,DNLE,CCCCC([NH3+])C([O-])O
DNVA,Norvaline,,,117.15,-1.86,2.36,149.67,64.01,2.36_9.76,CCC[C@@H]([C](=O)=O)[NH3],,65098.0,439575.0,6600-40-4,2013-12-9,alanine,non-natural,DNVA,CCCC([NH3+])C([O-])O
DOAS,o-acetylserine,,,148.14,-3.48_(predicted),0.18,164.71,79.05,1.86_8.6_(predicted),CC(=O)OC[C@@H](C(=O)O)[NH3],,99478.0,,5147-00-2,44901-25-9,other,non-natural,DOAS,CC(O)OCC([NH3+])C(O)O
DOBF,"(2s)-2-amino-4,4-difluorobutanoic acid",,,140.11,-2.16_(predicted),0.75,141.26,55.6,1.79_9.36_(predicted),[NH3][C@H](C(=O)O)CC(F)F,,,,121960-22-3,,alanine,non-natural,DOBF,[NH3+]C(CC(F)F)C(O)O
DOCY,s-(2-hydroxyethyl)-l-cysteine,,,165.21,-2.52_(predicted),0.19_(predicted),184.75,99.09,2.26_9.14_(predicted),OCCSC[C@@H]([C](=O)=O)[NH3],,119224.0,,6367-98-2,85955-36-8,serine,non-natural,DOCY,[NH3+]C(CSCCO)C(O)O
DOLT,o-methyl-l-threonine,,,134.15,-3.08_(predicted),0.45_(predicted),158.68,73.01,2.34_8.89_(predicted),CO[C@@H]([C@@H](C(=O)O)[NH3])C,,2724875.0,,4144-02-9,,other,non-natural,DOLT,COC(C)C([NH3+])C([O-])O
DOMT,Methionine sulfone,,,182.22,-3.1,-0.03_(predicted),194.49,108.83,1.55_9.49_(predicted),OC(=O)[C@H](CCS(=O)(=O)C)[NH3],,,,7314-32-1,,methionine,non-natural,DOMT,CS(O)(O)CCC([NH3+])C([O-])O
DOMX,(betar)-beta-hydroxy-l-tyrosine,,,198.2,-2.88_(predicted),0.25,213.0,127.34,1.76_8.8_9.49-(para-OH)_(predicted),OC(=O)[C@H]([C@@H](c1ccc(cc1)O)O)[NH3],,,,,,phenylalanine,non-natural,DOMX,[NH3+]C(C(O)O)C(O)C1CCC(O)CC1
DOMY,(betar)-3-chloro-beta-hydroxy-l-tyrosine,,,232.64,-2.25_(predicted),1.31_(predicted),228.77,143.11,1.42_8.93_7.62_(predicted),OC(=O)[C@H]([C@@H](c1ccc(c(c1)Cl)O)O)[NH3],,,,,,phenylalanine,non-natural,DOMY,[NH3+]C(C(O)O)C(O)C1CCC(O)C(Cl)C1
DONL,5-oxo-l-norleucine,,,146.16,-3.35_(predicted),0.29,173.68,88.02,2.25_9.51_(predicted),CC(=O)CC[C@@H](C(=O)O)[NH3],,,,,,other,non-natural,DONL,CC(O)CCC([NH3+])C(O)O
DORN,Ornithine,,,133.17,-4.41,0.48,165.17,79.5,2.67_9.44_9.96_(predicted),[NH3]CCC[C@@H]([C](=O)=O)[NH3],,6262.0,,70-26-8,410523-47-6,lysine,non-natural,DORN,[NH3+]CCCC([NH3+])C([O-])O
D2TR,o-Tyrosine,,,182.2,-1.76_(predicted),1.98,208.34,122.68,2.01_8.88_9.38_(predicted),OC(=O)[C@H](Cc1ccccc1O)[NH3],,6950574.0,,709-16-0,24008-77-3,phenylalanine,non-natural,D2TR,[NH3+]C(CC1CCCCC1O)C(O)O
DPBF,4-benzoyl-phenylalanine,,,270.3,-0.07_(predicted),3.63_(predicted),315.08,229.42,1.59_9.21_(predicted),[NH3][C@H](C(=O)O)Cc1ccc(cc1)C(=O)c1ccccc1,,,,104504-45-2,201466-03-7,phenylalanine,non-natural,DPBF,[NH3+]C(CC1CCC(C(O)C2CCCCC2)CC1)C(O)O
DPF5,pentafluoro-phenylalanine,,,256.15,-0.91_(predicted),2.79_(predicted),224.06,138.39,0.34_9.17_(predicted),[NH3][C@H](C(=O)O)Cc1c(F)c(F)c(c(c1F)F)F,,,6992999.0,138109-65-6,40332-58-9,phenylalanine,non-natural,DPF5,[NH3+]C(CC1C(F)C(F)C(F)C(F)C1F)C([O-])O
DPFF,4-Fluoro-Phenylalanine,,,184.19,-1.89,2.58,203.09,117.42,1.86_9.45_(predicted),[NH3][C@H](C(=O)O)Cc1ccc(cc1)F,,716312.0,,1132-68-9,18125-46-7,phenylalanine,non-natural,DPFF,[NH3+]C(CC1CCC(F)CC1)C(O)O
DPHI,4-Iodo-Phenylalanine,,,292.09,-0.76_(predicted),2.94_(predicted),222.19,136.52,1.9_9.44_(predicted),[NH3][C@H](C(=O)O)Cc1ccc(cc1)I,,134497.0,,24250-85-9,62561-75-5,phenylalanine,non-natural,DPHI,[NH3+]C(CC1CCC(I)CC1)C([O-])O
DPPN,4-Nitro-phenylalanine,,,210.19,-1.25,2.37,223.74,138.07,1.16_9.37_(predicted),O=[C](=O)[C@H](Cc1ccc(cc1)N(=O)=O)[NH3],,13706.0,679497.0,949-99-5,56613-61-7,phenylalanine,non-natural,DPPN,[NH3+]C(CC1CCC(N(O)O)CC1)C([O-])O
DPTR,phosphotyrosine,,,262.18,-3.07_(predicted),0.63_(predicted),257.71,172.04,1.98_9.46_6.21_1.25_(predicted),OC(=O)[C@H](Cc1ccc(cc1)OP(=O)(O)O)[NH3],,30819.0,,21820-51-9,108321-25-1,phenylalanine,non-natural,DPTR,[NH3+]C(CC1CCC(O[PH](O)(O)O)CC1)C([O-])O
DPT6,phosphotyrosine  (charge: -2),,,262.18,-3.07_(predicted),0.63_(predicted),256.37,170.71,1.98_9.46_6.21_1.25_(predicted),OC(=O)[C@H](Cc1ccc(cc1)OP(=O)(O)O)[NH3],,30819.0,,21820-51-9,108321-25-1,phenylalanine,non-natural,DPT6,[NH3+]C(CC1CCC(O[PH](O)(O)O)CC1)C([O-])O
DY23,3-(2-Pyridyl)-alanine,,,166.18,-1.56_(predicted),1.11,193.91,108.25,1.77_9.27_3.04_(predicted),O=[C](=O)[C@H](Cc1ccccn1)[NH3],,2761499.0,7019768.0,37535-51-6,37535-52-7,phenylalanine,non-natural,DY23,[NH3+][C@H](Cc1ccccn1)C(=O)O
DY33,3-(3-Pyridyl)-alanine,,,167.19,-2.48_(predicted),1.2,193.64,107.98,1.79_9.37_3.85_(predicted),OC(=O)[C@H](Cc1cccnc1)[NH3],,152953.0,,64090-98-8,70702-47-5,phenylalanine,non-natural,DY33,[NH3+]C(CC1CCCNC1)C(O)O
DY34,3-(4-Pyridyl)-alanine,,,167.19,-2.48_(predicted),1.22,193.57,107.91,1.79_9.4_4.86_(predicted),[NH3][C@H](C(=O)O)Cc1ccncc1,,,,178933-04-5,174096-41-4,phenylalanine,non-natural,DY34,[NH3+]C(CC1CCNCC1)C(O)O
DPZ4,3-(1-Pyrazolyl)-alanine,,,156.16,-3.42_(predicted),0.23,175.52,89.86,1.25_8.84_3.08-(ND1)_(predicted),OC(=O)[C@H](Cn1cccn1)[NH3],,151491.0,,2734-48-7,2734-48-7,histidine,non-natural,DPZ4,[NH3+]C(CN1CCCN1)C([O-])O
DQ32,3-(2-Quinolyl)-alanine,,,217.24,-1.11_(predicted),2.59,250.24,164.58,1.66_9.29_2.44_(predicted),OC(=O)[C@H](Cc1ccc2c(n1)cccc2)[NH3],,,,161513-46-8,170421-67-7,phenylalanine,non-natural,DQ32,[NH3+]C(CC1CCC2CCCCC2N1)C(O)O
DQ33,3-(3-quinolyl)-alanine,,,217.24,-1.14_(predicted),2.53,248.18,162.52,2.22_9.38_3.22_(predicted),OC(=O)[C@H](Cc1cnc2c(c1)cccc2)[NH3],,,,,,phenylalanine,non-natural,DQ33,[NH3+]C(CC1CNC2CCCCC2C1)C(O)O
DQ34,3-(4-quinolyl)-alanine,,,217.24,-1.14_(predicted),2.61,248.44,162.78,2.25_9.38_4.3_(predicted),OC(=O)[C@H](Cc1ccnc2c1cccc2)[NH3],,,,,,phenylalanine,non-natural,DQ34,[NH3+]C(CC1CCNC2CCCCC12)C(O)O
DQ35,3-(5-Quinolyl)-alanine,,,217.24,-1.14_(predicted),2.47,250.03,164.37,2.24_9.43_4.31_(predicted),OC(=O)[C@H](Cc1ccc2c(c1)nccc2)[NH3],,,,,,phenylalanine,non-natural,DQ35,[NH3+]C(CC1CCC2CCCNC2C1)C(O)O
DQ36,3-(6-Quinolyl)-alanine,,,217.24,-1.23_(predicted),2.47_(predicted),249.91,164.24,2.17_9.43_5.18_(predicted),OC(=O)[C@H](Cc1ccc2c(c1)cncc2)[NH3],,,,,,phenylalanine,non-natural,DQ36,[NH3+]C(CC1CCC2CCNCC2C1)C(O)O
DQX3,3-(2-quinoxalyl)-alanine,,,218.23,-2.09_(predicted),1.61,243.44,157.78,1.97_9.22_(predicted),OC(=O)[C@H](Cc1cnc2c(n1)cccc2)[NH3],,,,,,phenylalanine,non-natural,DQX3,[NH3+]C(CC1CNC2CCCCC2N1)C(O)O
DSEP,phosphoserine,,,186.08,-5.14_(predicted),-1.55_(predicted),168.6,82.94,2.22_8.65_6.71_1.75_(predicted),OC(=O)[C@H](COP(=O)(O)O)[NH3],,68841.0,,407-41-0,73913-63-0,serine,non-natural,DSEP,[NH3+]C(CO[PH](O)(O)O)C([O-])O
DSE2,phosphoserine (charge: -2),,,186.08,-5.14_(predicted),-1.55_(predicted),167.17,81.5,2.22_8.65_6.71_1.75_(predicted),OC(=O)[C@H](COP(=O)(O)O)[NH3],,68841.0,,407-41-0,73913-63-0,serine,non-natural,DSE2,[NH3+]C(CO[PH](O)(O)O)C([O-])O
DSLZ,thialysine,,,166.24,-3.66_(predicted),-0.06_(predicted),186.92,101.26,2.52_9.03_9.74_(predicted),[NH3][C@H](C(=O)O)CSCC[NH3],,99558.0,,2936-69-8,,lysine,non-natural,DSLZ,[NH3+]CCSCC([NH3+])C(O)O
DSME,Methionine sulfoxide,,,166.22,-3.91_(predicted),0.77_(predicted),183.87,98.21,1.74_9.51_(predicted),C[S@@](=O)CC[C@@H](C(=O)O)[NH3],,158980.0,,3226-65-1,,methionine,non-natural,DSME,C[S@@H](O)CC[C@@H]([NH3+])C(=O)O
DSYA,Styrylalanine,,,192.23,-0.77_(predicted),3.35,233.17,147.5,2.51_9.48_(predicted),OC(=O)[C@H](CC=Cc1ccccc1)[NH3],,,,267650-37-3,264903-53-9,phenylalanine,non-natural,DSYA,[NH3+]C(CCCC1CCCCC1)C(O)O
DSYM,"2s,4r-4-methylglutamate",,,161.16,-2.06_(predicted),0.94,177.99,92.33,2_9.53_4.21_(predicted),OC(=O)[C@H](C[C@H]([C](=O)=O)C)[NH3],,,,31137-74-3,,aspartic,non-natural,DSYM,CC(CC([NH3+])C([O-])O)C(O)O
D4TF,4-tert-butyl-phenylalanine,,,222.3,0.26_(predicted),5.17,278.4,192.74,2.69_9.46_(predicted),[NH3][C@H](C(=O)O)Cc1ccc(cc1)C(C)(C)C,,2761795.0,,82372-74-5,274262-82-7,phenylalanine,non-natural,D4TF,CC(C)(C)C1CCC(CC([NH3+])C([O-])O)CC1
DTEZ,3-(2-Tetrazolyl)-alanine,,,158.14,-3.54_(predicted),0.12_(predicted),164.49,78.83,1.14_8.79_(predicted),OC(=O)[C@H](Cn1nncn1)[NH3],,,,405150-16-5,,histidine,non-natural,DTEZ,[NH3+]C(CN1NCNN1)C(O)O
D2TG,2-(Trifluoromethyl)-phenylglycine,,,220.17,-0.82_(predicted),3.01,207.97,122.31,1.59_8.61_(predicted),OC(=O)[C@H](c1ccccc1C(F)(F)F)[NH3],,,,240490-00-0,240490-00-0,phenylglycine,non-natural,D2TG,[NH3+]C(C([O-])O)C1CCCCC1C(F)(F)F
D3TG,3-(Trifluoromethyl)-phenylglycine,,,220.17,-0.82_(predicted),3.01,211.34,125.67,1.58_8.74_(predicted),OC(=O)[C@H](c1cccc(c1)C(F)(F)F)[NH3],,,,,,phenylglycine,non-natural,D3TG,[NH3+]C(C(O)O)C1CCCC(C(F)(F)F)C1
D4TG,4-(Trifluoromethyl)-phenylglycine,,,220.17,-0.82_(predicted),3.01,211.37,125.71,1.58_8.8_(predicted),[NH3][C@@H](c1ccc(cc1)C(F)(F)F)C(=O)O,[NH3][C@@H](c1ccc(cc1)C(F)(F)F)C(=O)O,,,144789-75-3,,phenylglycine,non-natural,D4TG,[NH3+]C(C(O)O)C1CCC(C(F)(F)F)CC1
DTFL,"5,5,5-Trifluoro-leucine",,,186.15,-1.10_(predicted),2.67_(predicted),186.24,100.58,1.82_9.51_(predicted),OC(=O)[C@H](C[C@@H](C(F)(F)F)C)[NH3],,,,25367-71-9,109719-09-7,alanine,non-natural,DTFL,CC(CC([NH3+])C([O-])O)C(F)(F)F
D2TF,2-(Trifluoromethyl)-phenylalanine,,,234.19,-0.52_(predicted),3.17_(predicted),230.73,145.07,1.86_9.37_(predicted),OC(=O)[C@H](Cc1ccccc1C(F)(F)F)[NH3],,2761500.0,,119009-47-1,130930-49-3,phenylalanine,non-natural,D2TF,[NH3+]C(CC1CCCCC1C(F)(F)F)C([O-])O
D3TF,3-(Trifluoromethyl)-phenylalanine,,,233.19,0.36_(predicted),3.17_(predicted),234.36,148.69,1.86_9.43_(predicted),OC(=O)[C@H](Cc1cccc(c1)C(F)(F)F)[NH3],,2777600.0,,14464-68-7,14464-67-6,phenylalanine,non-natural,D3TF,[NH3+]C(CC1CCCC(C(F)(F)F)C1)C([O-])O
D4TM,4-(Trifluoromethyl)-phenylalanine,,,233.19,0.36_(predicted),3.17_(predicted),234.38,148.71,1.86_9.44_(predicted),[NH3][C@H](C(=O)O)Cc1ccc(cc1)C(F)(F)F,,2761501.0,7004189.0,114926-38-4,114872-99-0,phenylalanine,non-natural,D4TM,[NH3+]C(CC1CCC(C(F)(F)F)CC1)C([O-])O
DTH6,4-hydroxy-l-threonine,,,135.12,-3.78_(predicted),-1.36,145.43,59.76,1.92_8.62_(predicted),OC[C@H]([C@@H]([C](=O)=O)[NH3])O,,193577.0,,21768-45-6,,serine,non-natural,DTH6,[NH3+]C(C([O-])O)C(O)CO
D3TA,3-(3-thienyl)-alanine,,,172.22,-1.73_(predicted),2.34,188.53,102.87,2.07_9.83_(predicted),OC(=O)[C@H](Cc1cscc1)[NH3],,,,3685-51-6,152612-26-5,histidine,non-natural,D3TA,[NH3+]C(CC1CCSC1)C(O)O
D2TH,2-thienylglycine,,,158.2,-2.05,1.81,165.75,80.09,1.73_8.37_(predicted),OC(=O)[C@H](c1cccs1)[NH3],,,736059.0,4052-59-9,43189-45-3,other,non-natural,D2TH,[NH3+]C(C(O)O)C1CCCS1
D3TH,3-thienylglycine,,,158.2,-2.02_(predicted),1.81,165.53,79.86,1.79_8.52_(predicted),OC(=O)[C@H](c1cscc1)[NH3],,16220058.0,,1194-87-2,1194-86-1,other,non-natural,D3TH,[NH3+]C(C(O)O)C1CCSC1
DTVI,Thio-citrulline,,,192.26,-0.68_(predicted),0.46_(predicted),212.1,126.44,2.69_9.23_(predicted),OC(=O)[C@H](CCC[NH]=[C](=S)=[NH2])[NH3],,,,,,arginine,non-natural,DTVI,NC(S)NCCCC([NH3+])C([O-])O
DTIH,3-(2-thienyl)-alanine,,,172.22,-1.69_(predicted),2.33,188.84,103.18,2.05_9.27_(predicted),OC(=O)[C@H](Cc1cccs1)[NH3],,146719.0,7111750.0,22951-96-8,62561-76-6,histidine,non-natural,DTIH,[NH3+]C(CC1CCCS1)C([O-])O
DTPO,phosphothreonine,,,200.11,-3.75_(predicted),-1.19_(predicted),187.0,101.33,2.27_8.72_6.7_1.72_(predicted),C[C@H]([C@@H]([C](=O)=O)[NH3])OP(O)(O)O,,,,1114-81-4,96193-69-0,serine,non-natural,DTPO,CC(O[PH](O)(O)O)C([NH3+])C([O-])O
DPO6,phosphothreonine  (charge: -2),,,200.11,-3.75_(predicted),-1.19_(predicted),185.69,100.03,2.27_8.72_6.7_1.72_(predicted),C[C@H]([C@@H]([C](=O)=O)[NH3])OP(O)(O)O,,,,1114-81-4,96193-69-0,serine,non-natural,DPO6,CC(O[PH](O)(O)O)C([NH3+])C([O-])O
DTRO,2-hydroxy-tryptophan,,,221.23,-1.30_(predicted),2.39_(predicted),238.51,152.84,2.2_8.64_8.63_(predicted),OC(=O)[C@H](Cc1c(O)[nH]c2c1cccc2)[NH3],,,,,,tryptophan,non-natural,DTRO,[NH3+]C(CC1C(O)NC2CCCCC21)C(O)O
DTRX,6-hydroxy-tryptophan,,,220.22,-0.75_(predicted),2.06_(predicted),239.95,154.29,2.15_9.16_9.77_(predicted),O=[C](=O)[C@H](Cc1c[nH]c2c1ccc(c2)O)[NH3],,,,,,tryptophan,non-natural,DTRX,[NH3+]C(CC1CNC2CC(O)CCC12)C([O-])O
DTZR,"3-(1,2,4-Triazol-1-yl)-alanine",,,157.15,-3.65_(predicted),0.00_(predicted),170.58,84.91,0.82_8.84_2.07-(NE)_(predicted),[NH3][C@H](C(=O)O)Cn1cncn1,,,,4819-36-7,,histidine,non-natural,DTZR,[NH3+]C(CN1CNCN1)C([O-])O
DTTQ,6-amino-7-hydroxy-l-tryptophan,,,235.24,-1.43_(predicted),1.38_(predicted),250.75,165.09,1.64_9.27_9.82_3.54_(predicted),[NH3][C@H]([C](=O)=O)Cc1c[nH]c2c1ccc(c2O)N,,,,,,tryptophan,non-natural,DTTQ,NC1CCC2C(CC([NH3+])C([O-])O)CNC2C1O
DTY2,3-Amino-L-tyrosine,,,197.21,-2.45_(predicted),1.16,219.61,133.95,1.24_9.42_4.19_10.32_(predicted),OC(=O)[C@H](Cc1ccc(c(c1)N)O)[NH3],,160450.0,,300-34-5,,phenylalanine,non-natural,DTY2,NC1CC(CC([NH3+])C([O-])O)CCC1O
DTYI,"3,5-diiodotyrosine",,,433.99,-0.46_(predicted),4.2,252.64,166.98,1.47_9.45_7.23_(predicted),OC(=O)[C@H](Cc1cc(I)c(c(c1)I)O)[NH3],,,7059641.0,300-39-0,16711-71-0,phenylalanine,non-natural,DTYI,[NH3+]C(CC1CC(I)C(O)C(I)C1)C(O)O
DTYQ,3-amino-6-hydroxy-tyrosine,,,213.21,-2.80_(predicted),0.89_(predicted),223.61,137.95,0.99_8.98_11.56_5.2_9.62_(predicted),OC(=O)[C@H](Cc1cc(N)c(cc1O)O)[NH3],,,,,,phenylalanine,non-natural,DTYQ,NC1CC(CC([NH3+])C(O)O)C(O)CC1O
D4TH,(4-thiazolyl)-alanine,,,173.21,-2.34_(predicted),0.97,185.19,99.53,0.26_9.2_1.96_(predicted),[NH3][C@H](C(=O)O)Cc1cscn1,,,,136010-41-8,131896-42-9,histidine,non-natural,D4TH,[NH3+]C(CC1CSCN1)C(O)O
DUN1,2-Aminoadipic acid,,,162.16,-3.15_(predicted),0.79,179.36,93.69,2.01_9.53_4.29_(predicted),OC(=O)CCC[C@@H](C(=O)O)[NH3],,92136.0,,542-32-5,7620-28-2,aspartic,non-natural,DUN1,[NH3+]C(CCCC(O)O)C([O-])O
DVAH,Hydroxynorvaline,,,133.15,-2.21_(predicted),0.25,155.79,70.13,2.34_8.99_(predicted),CC[C@H]([C@@H]([C](=O)=O)[NH3])O,,65097.0,65097.0,34042-00-7,34042-00-7,serine,non-natural,DVAH,CC[C@@H](O)[C@@H]([NH3+])C(=O)O
DWFP,"3,5-Difluoro-phenylalanine",,,202.18,-1.21_(predicted),2.49_(predicted),208.53,122.87,1.4_9.38_(predicted),[NH3][C@H](C(=O)O)Cc1cc(F)cc(c1)F,,716307.0,716310.0,31105-91-6,266360-63-8,phenylalanine,non-natural,DWFP,[NH3+]C(CC1CC(F)CC(F)C1)C(O)O
DYCM,cysteine-s-acetamide,,,179.22,-3.77_(predicted),-0.18_(predicted),187.98,102.32,2.08_8.83_(predicted),NC(=O)CSC[C@@H](C(=O)O)[NH3],,95482.0,95482.0,17528-66-4,17528-66-4,asparagine,non-natural,DYCM,NC(O)CSCC([NH3+])C([O-])O
DYOF,3-fluorotyrosine,,,200.19,-1.66_(predicted),2.03_(predicted),210.5,124.83,1.57_9.48_8.37_(predicted),OC(=O)[C@H](Cc1ccc(c(c1)F)O)[NH3],,643330.0,719318.0,7423-96-3,64024-06-2,phenylalanine,non-natural,DYOF,[NH3+]C(CC1CCC(O)C(F)C1)C(O)O